V -t * -v 1.0a5 -a 0
A -t * -n 1 -p 0 -o 0x7fffffff -c 30 -a 1
A -t * -h 1 -m 1073741823 -s 0
c -t * -i 1 -n Blue
c -t * -i 2 -n Red
n -t * -a 8 -s 8 -S UP -v circle -c black -i black
n -t * -a 4 -s 4 -S UP -v circle -c black -i black
n -t * -a 0 -s 0 -S UP -v circle -c black -i black
n -t * -a 5 -s 5 -S UP -v circle -c black -i black
n -t * -a 1 -s 1 -S UP -v circle -c black -i black
n -t * -a 6 -s 6 -S UP -v circle -c black -i black
n -t * -a 2 -s 2 -S UP -v circle -c black -i black
n -t * -a 7 -s 7 -S UP -v circle -c black -i black
n -t * -a 3 -s 3 -S UP -v circle -c black -i black
l -t * -s 1 -d 0 -S UP -r 2000000 -D 0.050000000000000003 -c black -o right-down
l -t * -s 2 -d 0 -S UP -r 2000000 -D 0.050000000000000003 -c black -o right-up
l -t * -s 0 -d 3 -S UP -r 1000000 -D 0.050000000000000003 -c black -o right
X -t * -n 9 -r 512Kb -D 50ms -o left
L -t * -s 9 -d 3 -o up
L -t * -s 9 -d 4 -o down
L -t * -s 9 -d 5 -o up
L -t * -s 9 -d 6 -o down
L -t * -s 9 -d 7 -o up
L -t * -s 9 -d 8 -o down
+ -t 0.3 -s 1 -d 0 -p tcp -e 40 -c 1 -i 0 -a 1 -x {1.0 7.0 0 ------- null}
- -t 0.3 -s 1 -d 0 -p tcp -e 40 -c 1 -i 0 -a 1 -x {1.0 7.0 0 ------- null}
h -t 0.3 -s 1 -d 0 -p tcp -e 40 -c 1 -i 0 -a 1 -x {1.0 7.0 -1 ------- null}
+ -t 0.3 -s 2 -d 0 -p tcp -e 1500 -c 2 -i 1 -a 2 -x {2.0 8.0 0 ------- null}
- -t 0.3 -s 2 -d 0 -p tcp -e 1500 -c 2 -i 1 -a 2 -x {2.0 8.0 0 ------- null}
h -t 0.3 -s 2 -d 0 -p tcp -e 1500 -c 2 -i 1 -a 2 -x {2.0 8.0 -1 ------- null}
r -t 0.35016 -s 1 -d 0 -p tcp -e 40 -c 1 -i 0 -a 1 -x {1.0 7.0 0 ------- null}
+ -t 0.35016 -s 0 -d 3 -p tcp -e 40 -c 1 -i 0 -a 1 -x {1.0 7.0 0 ------- null}
- -t 0.35016 -s 0 -d 3 -p tcp -e 40 -c 1 -i 0 -a 1 -x {1.0 7.0 0 ------- null}
h -t 0.35016 -s 0 -d 3 -p tcp -e 40 -c 1 -i 0 -a 1 -x {1.0 7.0 -1 ------- null}
r -t 0.356 -s 2 -d 0 -p tcp -e 1500 -c 2 -i 1 -a 2 -x {2.0 8.0 0 ------- null}
+ -t 0.356 -s 0 -d 3 -p tcp -e 1500 -c 2 -i 1 -a 2 -x {2.0 8.0 0 ------- null}
- -t 0.356 -s 0 -d 3 -p tcp -e 1500 -c 2 -i 1 -a 2 -x {2.0 8.0 0 ------- null}
h -t 0.356 -s 0 -d 3 -p tcp -e 1500 -c 2 -i 1 -a 2 -x {2.0 8.0 -1 ------- null}
r -t 0.40048 -s 0 -d 3 -p tcp -e 40 -c 1 -i 0 -a 1 -x {1.0 7.0 0 ------- null}
h -t 0.40048 -s 3 -d 9 -p tcp -e 40 -c 1 -i 0 -a 1 -x {1.0 7.0 0 ------- null}
r -t 0.418 -s 0 -d 3 -p tcp -e 1500 -c 2 -i 1 -a 2 -x {2.0 8.0 0 ------- null}
h -t 0.418 -s 3 -d 9 -p tcp -e 1500 -c 2 -i 1 -a 2 -x {2.0 8.0 0 ------- null}
+ -t 0.45048 -s 3 -d 9 -p tcp -e 40 -c 1 -i 0 -a 1 -x {1.0 7.0 0 ------- null}
- -t 0.45048 -s 3 -d 9 -p tcp -e 40 -c 1 -i 0 -a 1 -x {1.0 7.0 0 ------- null}
h -t 0.45048 -s 3 -d 9 -p tcp -e 40 -c 1 -i 0 -a 1 -x {1.0 7.0 -1 ------- null}
d -t 0.450484 -s 8 -d 9 -p tcp -e 40 -c 1 -i 0 -a 1 -x {1.0 7.0 0 ------- null}
d -t 0.450484 -s 6 -d 9 -p tcp -e 40 -c 1 -i 0 -a 1 -x {1.0 7.0 0 ------- null}
d -t 0.450484 -s 5 -d 9 -p tcp -e 40 -c 1 -i 0 -a 1 -x {1.0 7.0 0 ------- null}
d -t 0.450484 -s 4 -d 9 -p tcp -e 40 -c 1 -i 0 -a 1 -x {1.0 7.0 0 ------- null}
+ -t 0.468 -s 3 -d 9 -p tcp -e 1500 -c 2 -i 1 -a 2 -x {2.0 8.0 0 ------- null}
- -t 0.468 -s 3 -d 9 -p tcp -e 1500 -c 2 -i 1 -a 2 -x {2.0 8.0 0 ------- null}
h -t 0.468 -s 3 -d 9 -p tcp -e 1500 -c 2 -i 1 -a 2 -x {2.0 8.0 -1 ------- null}
d -t 0.468004 -s 7 -d 9 -p tcp -e 1500 -c 2 -i 1 -a 2 -x {2.0 8.0 0 ------- null}
d -t 0.468004 -s 6 -d 9 -p tcp -e 1500 -c 2 -i 1 -a 2 -x {2.0 8.0 0 ------- null}
d -t 0.468004 -s 5 -d 9 -p tcp -e 1500 -c 2 -i 1 -a 2 -x {2.0 8.0 0 ------- null}
d -t 0.468004 -s 4 -d 9 -p tcp -e 1500 -c 2 -i 1 -a 2 -x {2.0 8.0 0 ------- null}
r -t 0.500484 -s 9 -d 7 -p tcp -e 40 -c 1 -i 0 -a 1 -x {1.0 7.0 0 ------- null}
h -t 0.500484 -s 7 -d 9 -p ack -e 40 -c 1 -i 2 -a 1 -x {7.0 1.0 0 ------- null}
r -t 0.518004 -s 9 -d 8 -p tcp -e 1500 -c 2 -i 1 -a 2 -x {2.0 8.0 0 ------- null}
h -t 0.518004 -s 8 -d 9 -p ack -e 40 -c 2 -i 3 -a 2 -x {8.0 2.0 0 ------- null}
+ -t 0.550484 -s 7 -d 9 -p ack -e 40 -c 1 -i 2 -a 1 -x {7.0 1.0 0 ------- null}
- -t 0.550484 -s 7 -d 9 -p ack -e 40 -c 1 -i 2 -a 1 -x {7.0 1.0 0 ------- null}
h -t 0.550484 -s 7 -d 9 -p ack -e 40 -c 1 -i 2 -a 1 -x {7.0 1.0 -1 ------- null}
d -t 0.550488 -s 8 -d 9 -p ack -e 40 -c 1 -i 2 -a 1 -x {7.0 1.0 0 ------- null}
d -t 0.550488 -s 6 -d 9 -p ack -e 40 -c 1 -i 2 -a 1 -x {7.0 1.0 0 ------- null}
d -t 0.550488 -s 5 -d 9 -p ack -e 40 -c 1 -i 2 -a 1 -x {7.0 1.0 0 ------- null}
d -t 0.550488 -s 4 -d 9 -p ack -e 40 -c 1 -i 2 -a 1 -x {7.0 1.0 0 ------- null}
+ -t 0.568004 -s 8 -d 9 -p ack -e 40 -c 2 -i 3 -a 2 -x {8.0 2.0 0 ------- null}
- -t 0.568004 -s 8 -d 9 -p ack -e 40 -c 2 -i 3 -a 2 -x {8.0 2.0 0 ------- null}
h -t 0.568004 -s 8 -d 9 -p ack -e 40 -c 2 -i 3 -a 2 -x {8.0 2.0 -1 ------- null}
d -t 0.568008 -s 7 -d 9 -p ack -e 40 -c 2 -i 3 -a 2 -x {8.0 2.0 0 ------- null}
d -t 0.568008 -s 6 -d 9 -p ack -e 40 -c 2 -i 3 -a 2 -x {8.0 2.0 0 ------- null}
d -t 0.568008 -s 5 -d 9 -p ack -e 40 -c 2 -i 3 -a 2 -x {8.0 2.0 0 ------- null}
d -t 0.568008 -s 4 -d 9 -p ack -e 40 -c 2 -i 3 -a 2 -x {8.0 2.0 0 ------- null}
r -t 0.600488 -s 9 -d 3 -p ack -e 40 -c 1 -i 2 -a 1 -x {7.0 1.0 0 ------- null}
+ -t 0.600488 -s 3 -d 0 -p ack -e 40 -c 1 -i 2 -a 1 -x {7.0 1.0 0 ------- null}
- -t 0.600488 -s 3 -d 0 -p ack -e 40 -c 1 -i 2 -a 1 -x {7.0 1.0 0 ------- null}
h -t 0.600488 -s 3 -d 0 -p ack -e 40 -c 1 -i 2 -a 1 -x {7.0 1.0 -1 ------- null}
r -t 0.618008 -s 9 -d 3 -p ack -e 40 -c 2 -i 3 -a 2 -x {8.0 2.0 0 ------- null}
+ -t 0.618008 -s 3 -d 0 -p ack -e 40 -c 2 -i 3 -a 2 -x {8.0 2.0 0 ------- null}
- -t 0.618008 -s 3 -d 0 -p ack -e 40 -c 2 -i 3 -a 2 -x {8.0 2.0 0 ------- null}
h -t 0.618008 -s 3 -d 0 -p ack -e 40 -c 2 -i 3 -a 2 -x {8.0 2.0 -1 ------- null}
r -t 0.650808 -s 3 -d 0 -p ack -e 40 -c 1 -i 2 -a 1 -x {7.0 1.0 0 ------- null}
+ -t 0.650808 -s 0 -d 1 -p ack -e 40 -c 1 -i 2 -a 1 -x {7.0 1.0 0 ------- null}
- -t 0.650808 -s 0 -d 1 -p ack -e 40 -c 1 -i 2 -a 1 -x {7.0 1.0 0 ------- null}
h -t 0.650808 -s 0 -d 1 -p ack -e 40 -c 1 -i 2 -a 1 -x {7.0 1.0 -1 ------- null}
r -t 0.668328 -s 3 -d 0 -p ack -e 40 -c 2 -i 3 -a 2 -x {8.0 2.0 0 ------- null}
+ -t 0.668328 -s 0 -d 2 -p ack -e 40 -c 2 -i 3 -a 2 -x {8.0 2.0 0 ------- null}
- -t 0.668328 -s 0 -d 2 -p ack -e 40 -c 2 -i 3 -a 2 -x {8.0 2.0 0 ------- null}
h -t 0.668328 -s 0 -d 2 -p ack -e 40 -c 2 -i 3 -a 2 -x {8.0 2.0 -1 ------- null}
r -t 0.700968 -s 0 -d 1 -p ack -e 40 -c 1 -i 2 -a 1 -x {7.0 1.0 0 ------- null}
+ -t 0.700968 -s 1 -d 0 -p tcp -e 1540 -c 1 -i 4 -a 1 -x {1.0 7.0 1 ------- null}
- -t 0.700968 -s 1 -d 0 -p tcp -e 1540 -c 1 -i 4 -a 1 -x {1.0 7.0 1 ------- null}
h -t 0.700968 -s 1 -d 0 -p tcp -e 1540 -c 1 -i 4 -a 1 -x {1.0 7.0 -1 ------- null}
+ -t 0.700968 -s 1 -d 0 -p tcp -e 1540 -c 1 -i 5 -a 1 -x {1.0 7.0 2 ------- null}
- -t 0.707128 -s 1 -d 0 -p tcp -e 1540 -c 1 -i 5 -a 1 -x {1.0 7.0 2 ------- null}
h -t 0.707128 -s 1 -d 0 -p tcp -e 1540 -c 1 -i 5 -a 1 -x {1.0 7.0 -1 ------- null}
r -t 0.718488 -s 0 -d 2 -p ack -e 40 -c 2 -i 3 -a 2 -x {8.0 2.0 0 ------- null}
+ -t 0.718488 -s 2 -d 0 -p tcp -e 1500 -c 2 -i 6 -a 2 -x {2.0 8.0 1 ------- null}
- -t 0.718488 -s 2 -d 0 -p tcp -e 1500 -c 2 -i 6 -a 2 -x {2.0 8.0 1 ------- null}
h -t 0.718488 -s 2 -d 0 -p tcp -e 1500 -c 2 -i 6 -a 2 -x {2.0 8.0 -1 ------- null}
r -t 0.757128 -s 1 -d 0 -p tcp -e 1540 -c 1 -i 4 -a 1 -x {1.0 7.0 1 ------- null}
+ -t 0.757128 -s 0 -d 3 -p tcp -e 1540 -c 1 -i 4 -a 1 -x {1.0 7.0 1 ------- null}
- -t 0.757128 -s 0 -d 3 -p tcp -e 1540 -c 1 -i 4 -a 1 -x {1.0 7.0 1 ------- null}
h -t 0.757128 -s 0 -d 3 -p tcp -e 1540 -c 1 -i 4 -a 1 -x {1.0 7.0 -1 ------- null}
r -t 0.763288 -s 1 -d 0 -p tcp -e 1540 -c 1 -i 5 -a 1 -x {1.0 7.0 2 ------- null}
+ -t 0.763288 -s 0 -d 3 -p tcp -e 1540 -c 1 -i 5 -a 1 -x {1.0 7.0 2 ------- null}
- -t 0.769448 -s 0 -d 3 -p tcp -e 1540 -c 1 -i 5 -a 1 -x {1.0 7.0 2 ------- null}
h -t 0.769448 -s 0 -d 3 -p tcp -e 1540 -c 1 -i 5 -a 1 -x {1.0 7.0 -1 ------- null}
r -t 0.774488 -s 2 -d 0 -p tcp -e 1500 -c 2 -i 6 -a 2 -x {2.0 8.0 1 ------- null}
+ -t 0.774488 -s 0 -d 3 -p tcp -e 1500 -c 2 -i 6 -a 2 -x {2.0 8.0 1 ------- null}
- -t 0.781768 -s 0 -d 3 -p tcp -e 1500 -c 2 -i 6 -a 2 -x {2.0 8.0 1 ------- null}
h -t 0.781768 -s 0 -d 3 -p tcp -e 1500 -c 2 -i 6 -a 2 -x {2.0 8.0 -1 ------- null}
r -t 0.819448 -s 0 -d 3 -p tcp -e 1540 -c 1 -i 4 -a 1 -x {1.0 7.0 1 ------- null}
h -t 0.819448 -s 3 -d 9 -p tcp -e 1540 -c 1 -i 4 -a 1 -x {1.0 7.0 1 ------- null}
r -t 0.831768 -s 0 -d 3 -p tcp -e 1540 -c 1 -i 5 -a 1 -x {1.0 7.0 2 ------- null}
h -t 0.831768 -s 3 -d 9 -p tcp -e 1540 -c 1 -i 5 -a 1 -x {1.0 7.0 2 ------- null}
r -t 0.843768 -s 0 -d 3 -p tcp -e 1500 -c 2 -i 6 -a 2 -x {2.0 8.0 1 ------- null}
h -t 0.843768 -s 3 -d 9 -p tcp -e 1500 -c 2 -i 6 -a 2 -x {2.0 8.0 1 ------- null}
+ -t 0.869448 -s 3 -d 9 -p tcp -e 1540 -c 1 -i 4 -a 1 -x {1.0 7.0 1 ------- null}
- -t 0.869448 -s 3 -d 9 -p tcp -e 1540 -c 1 -i 4 -a 1 -x {1.0 7.0 1 ------- null}
h -t 0.869448 -s 3 -d 9 -p tcp -e 1540 -c 1 -i 4 -a 1 -x {1.0 7.0 -1 ------- null}
d -t 0.869452 -s 8 -d 9 -p tcp -e 1540 -c 1 -i 4 -a 1 -x {1.0 7.0 1 ------- null}
d -t 0.869452 -s 6 -d 9 -p tcp -e 1540 -c 1 -i 4 -a 1 -x {1.0 7.0 1 ------- null}
d -t 0.869452 -s 5 -d 9 -p tcp -e 1540 -c 1 -i 4 -a 1 -x {1.0 7.0 1 ------- null}
d -t 0.869452 -s 4 -d 9 -p tcp -e 1540 -c 1 -i 4 -a 1 -x {1.0 7.0 1 ------- null}
+ -t 0.881768 -s 3 -d 9 -p tcp -e 1540 -c 1 -i 5 -a 1 -x {1.0 7.0 2 ------- null}
- -t 0.881768 -s 3 -d 9 -p tcp -e 1540 -c 1 -i 5 -a 1 -x {1.0 7.0 2 ------- null}
h -t 0.881768 -s 3 -d 9 -p tcp -e 1540 -c 1 -i 5 -a 1 -x {1.0 7.0 -1 ------- null}
d -t 0.881772 -s 8 -d 9 -p tcp -e 1540 -c 1 -i 5 -a 1 -x {1.0 7.0 2 ------- null}
d -t 0.881772 -s 6 -d 9 -p tcp -e 1540 -c 1 -i 5 -a 1 -x {1.0 7.0 2 ------- null}
d -t 0.881772 -s 5 -d 9 -p tcp -e 1540 -c 1 -i 5 -a 1 -x {1.0 7.0 2 ------- null}
d -t 0.881772 -s 4 -d 9 -p tcp -e 1540 -c 1 -i 5 -a 1 -x {1.0 7.0 2 ------- null}
+ -t 0.893768 -s 3 -d 9 -p tcp -e 1500 -c 2 -i 6 -a 2 -x {2.0 8.0 1 ------- null}
- -t 0.893768 -s 3 -d 9 -p tcp -e 1500 -c 2 -i 6 -a 2 -x {2.0 8.0 1 ------- null}
h -t 0.893768 -s 3 -d 9 -p tcp -e 1500 -c 2 -i 6 -a 2 -x {2.0 8.0 -1 ------- null}
d -t 0.893772 -s 7 -d 9 -p tcp -e 1500 -c 2 -i 6 -a 2 -x {2.0 8.0 1 ------- null}
d -t 0.893772 -s 6 -d 9 -p tcp -e 1500 -c 2 -i 6 -a 2 -x {2.0 8.0 1 ------- null}
d -t 0.893772 -s 5 -d 9 -p tcp -e 1500 -c 2 -i 6 -a 2 -x {2.0 8.0 1 ------- null}
d -t 0.893772 -s 4 -d 9 -p tcp -e 1500 -c 2 -i 6 -a 2 -x {2.0 8.0 1 ------- null}
r -t 0.919452 -s 9 -d 7 -p tcp -e 1540 -c 1 -i 4 -a 1 -x {1.0 7.0 1 ------- null}
h -t 0.919452 -s 7 -d 9 -p ack -e 40 -c 1 -i 7 -a 1 -x {7.0 1.0 1 ------- null}
r -t 0.931772 -s 9 -d 7 -p tcp -e 1540 -c 1 -i 5 -a 1 -x {1.0 7.0 2 ------- null}
h -t 0.931772 -s 7 -d 9 -p ack -e 40 -c 1 -i 8 -a 1 -x {7.0 1.0 2 ------- null}
r -t 0.943772 -s 9 -d 8 -p tcp -e 1500 -c 2 -i 6 -a 2 -x {2.0 8.0 1 ------- null}
h -t 0.943772 -s 8 -d 9 -p ack -e 40 -c 2 -i 9 -a 2 -x {8.0 2.0 1 ------- null}
+ -t 0.969452 -s 7 -d 9 -p ack -e 40 -c 1 -i 7 -a 1 -x {7.0 1.0 1 ------- null}
- -t 0.969452 -s 7 -d 9 -p ack -e 40 -c 1 -i 7 -a 1 -x {7.0 1.0 1 ------- null}
h -t 0.969452 -s 7 -d 9 -p ack -e 40 -c 1 -i 7 -a 1 -x {7.0 1.0 -1 ------- null}
d -t 0.969456 -s 8 -d 9 -p ack -e 40 -c 1 -i 7 -a 1 -x {7.0 1.0 1 ------- null}
d -t 0.969456 -s 6 -d 9 -p ack -e 40 -c 1 -i 7 -a 1 -x {7.0 1.0 1 ------- null}
d -t 0.969456 -s 5 -d 9 -p ack -e 40 -c 1 -i 7 -a 1 -x {7.0 1.0 1 ------- null}
d -t 0.969456 -s 4 -d 9 -p ack -e 40 -c 1 -i 7 -a 1 -x {7.0 1.0 1 ------- null}
+ -t 0.981772 -s 7 -d 9 -p ack -e 40 -c 1 -i 8 -a 1 -x {7.0 1.0 2 ------- null}
- -t 0.981772 -s 7 -d 9 -p ack -e 40 -c 1 -i 8 -a 1 -x {7.0 1.0 2 ------- null}
h -t 0.981772 -s 7 -d 9 -p ack -e 40 -c 1 -i 8 -a 1 -x {7.0 1.0 -1 ------- null}
d -t 0.981776 -s 8 -d 9 -p ack -e 40 -c 1 -i 8 -a 1 -x {7.0 1.0 2 ------- null}
d -t 0.981776 -s 6 -d 9 -p ack -e 40 -c 1 -i 8 -a 1 -x {7.0 1.0 2 ------- null}
d -t 0.981776 -s 5 -d 9 -p ack -e 40 -c 1 -i 8 -a 1 -x {7.0 1.0 2 ------- null}
d -t 0.981776 -s 4 -d 9 -p ack -e 40 -c 1 -i 8 -a 1 -x {7.0 1.0 2 ------- null}
+ -t 0.993772 -s 8 -d 9 -p ack -e 40 -c 2 -i 9 -a 2 -x {8.0 2.0 1 ------- null}
- -t 0.993772 -s 8 -d 9 -p ack -e 40 -c 2 -i 9 -a 2 -x {8.0 2.0 1 ------- null}
h -t 0.993772 -s 8 -d 9 -p ack -e 40 -c 2 -i 9 -a 2 -x {8.0 2.0 -1 ------- null}
d -t 0.993776 -s 7 -d 9 -p ack -e 40 -c 2 -i 9 -a 2 -x {8.0 2.0 1 ------- null}
d -t 0.993776 -s 6 -d 9 -p ack -e 40 -c 2 -i 9 -a 2 -x {8.0 2.0 1 ------- null}
d -t 0.993776 -s 5 -d 9 -p ack -e 40 -c 2 -i 9 -a 2 -x {8.0 2.0 1 ------- null}
d -t 0.993776 -s 4 -d 9 -p ack -e 40 -c 2 -i 9 -a 2 -x {8.0 2.0 1 ------- null}
r -t 1.019456 -s 9 -d 3 -p ack -e 40 -c 1 -i 7 -a 1 -x {7.0 1.0 1 ------- null}
+ -t 1.019456 -s 3 -d 0 -p ack -e 40 -c 1 -i 7 -a 1 -x {7.0 1.0 1 ------- null}
- -t 1.019456 -s 3 -d 0 -p ack -e 40 -c 1 -i 7 -a 1 -x {7.0 1.0 1 ------- null}
h -t 1.019456 -s 3 -d 0 -p ack -e 40 -c 1 -i 7 -a 1 -x {7.0 1.0 -1 ------- null}
r -t 1.031776 -s 9 -d 3 -p ack -e 40 -c 1 -i 8 -a 1 -x {7.0 1.0 2 ------- null}
+ -t 1.031776 -s 3 -d 0 -p ack -e 40 -c 1 -i 8 -a 1 -x {7.0 1.0 2 ------- null}
- -t 1.031776 -s 3 -d 0 -p ack -e 40 -c 1 -i 8 -a 1 -x {7.0 1.0 2 ------- null}
h -t 1.031776 -s 3 -d 0 -p ack -e 40 -c 1 -i 8 -a 1 -x {7.0 1.0 -1 ------- null}
r -t 1.043776 -s 9 -d 3 -p ack -e 40 -c 2 -i 9 -a 2 -x {8.0 2.0 1 ------- null}
+ -t 1.043776 -s 3 -d 0 -p ack -e 40 -c 2 -i 9 -a 2 -x {8.0 2.0 1 ------- null}
- -t 1.043776 -s 3 -d 0 -p ack -e 40 -c 2 -i 9 -a 2 -x {8.0 2.0 1 ------- null}
h -t 1.043776 -s 3 -d 0 -p ack -e 40 -c 2 -i 9 -a 2 -x {8.0 2.0 -1 ------- null}
r -t 1.069776 -s 3 -d 0 -p ack -e 40 -c 1 -i 7 -a 1 -x {7.0 1.0 1 ------- null}
+ -t 1.069776 -s 0 -d 1 -p ack -e 40 -c 1 -i 7 -a 1 -x {7.0 1.0 1 ------- null}
- -t 1.069776 -s 0 -d 1 -p ack -e 40 -c 1 -i 7 -a 1 -x {7.0 1.0 1 ------- null}
h -t 1.069776 -s 0 -d 1 -p ack -e 40 -c 1 -i 7 -a 1 -x {7.0 1.0 -1 ------- null}
r -t 1.082096 -s 3 -d 0 -p ack -e 40 -c 1 -i 8 -a 1 -x {7.0 1.0 2 ------- null}
+ -t 1.082096 -s 0 -d 1 -p ack -e 40 -c 1 -i 8 -a 1 -x {7.0 1.0 2 ------- null}
- -t 1.082096 -s 0 -d 1 -p ack -e 40 -c 1 -i 8 -a 1 -x {7.0 1.0 2 ------- null}
h -t 1.082096 -s 0 -d 1 -p ack -e 40 -c 1 -i 8 -a 1 -x {7.0 1.0 -1 ------- null}
r -t 1.094096 -s 3 -d 0 -p ack -e 40 -c 2 -i 9 -a 2 -x {8.0 2.0 1 ------- null}
+ -t 1.094096 -s 0 -d 2 -p ack -e 40 -c 2 -i 9 -a 2 -x {8.0 2.0 1 ------- null}
- -t 1.094096 -s 0 -d 2 -p ack -e 40 -c 2 -i 9 -a 2 -x {8.0 2.0 1 ------- null}
h -t 1.094096 -s 0 -d 2 -p ack -e 40 -c 2 -i 9 -a 2 -x {8.0 2.0 -1 ------- null}
r -t 1.119936 -s 0 -d 1 -p ack -e 40 -c 1 -i 7 -a 1 -x {7.0 1.0 1 ------- null}
+ -t 1.119936 -s 1 -d 0 -p tcp -e 1540 -c 1 -i 10 -a 1 -x {1.0 7.0 3 ------- null}
- -t 1.119936 -s 1 -d 0 -p tcp -e 1540 -c 1 -i 10 -a 1 -x {1.0 7.0 3 ------- null}
h -t 1.119936 -s 1 -d 0 -p tcp -e 1540 -c 1 -i 10 -a 1 -x {1.0 7.0 -1 ------- null}
+ -t 1.119936 -s 1 -d 0 -p tcp -e 1540 -c 1 -i 11 -a 1 -x {1.0 7.0 4 ------- null}
- -t 1.126096 -s 1 -d 0 -p tcp -e 1540 -c 1 -i 11 -a 1 -x {1.0 7.0 4 ------- null}
h -t 1.126096 -s 1 -d 0 -p tcp -e 1540 -c 1 -i 11 -a 1 -x {1.0 7.0 -1 ------- null}
r -t 1.132256 -s 0 -d 1 -p ack -e 40 -c 1 -i 8 -a 1 -x {7.0 1.0 2 ------- null}
+ -t 1.132256 -s 1 -d 0 -p tcp -e 1540 -c 1 -i 12 -a 1 -x {1.0 7.0 5 ------- null}
- -t 1.132256 -s 1 -d 0 -p tcp -e 1540 -c 1 -i 12 -a 1 -x {1.0 7.0 5 ------- null}
h -t 1.132256 -s 1 -d 0 -p tcp -e 1540 -c 1 -i 12 -a 1 -x {1.0 7.0 -1 ------- null}
+ -t 1.132256 -s 1 -d 0 -p tcp -e 1540 -c 1 -i 13 -a 1 -x {1.0 7.0 6 ------- null}
- -t 1.138416 -s 1 -d 0 -p tcp -e 1540 -c 1 -i 13 -a 1 -x {1.0 7.0 6 ------- null}
h -t 1.138416 -s 1 -d 0 -p tcp -e 1540 -c 1 -i 13 -a 1 -x {1.0 7.0 -1 ------- null}
r -t 1.144256 -s 0 -d 2 -p ack -e 40 -c 2 -i 9 -a 2 -x {8.0 2.0 1 ------- null}
+ -t 1.144256 -s 2 -d 0 -p tcp -e 1500 -c 2 -i 14 -a 2 -x {2.0 8.0 2 ------- null}
- -t 1.144256 -s 2 -d 0 -p tcp -e 1500 -c 2 -i 14 -a 2 -x {2.0 8.0 2 ------- null}
h -t 1.144256 -s 2 -d 0 -p tcp -e 1500 -c 2 -i 14 -a 2 -x {2.0 8.0 -1 ------- null}
+ -t 1.144256 -s 2 -d 0 -p tcp -e 1500 -c 2 -i 15 -a 2 -x {2.0 8.0 3 ------- null}
+ -t 1.144256 -s 2 -d 0 -p tcp -e 1500 -c 2 -i 16 -a 2 -x {2.0 8.0 4 ------- null}
- -t 1.150256 -s 2 -d 0 -p tcp -e 1500 -c 2 -i 15 -a 2 -x {2.0 8.0 3 ------- null}
h -t 1.150256 -s 2 -d 0 -p tcp -e 1500 -c 2 -i 15 -a 2 -x {2.0 8.0 -1 ------- null}
- -t 1.156256 -s 2 -d 0 -p tcp -e 1500 -c 2 -i 16 -a 2 -x {2.0 8.0 4 ------- null}
h -t 1.156256 -s 2 -d 0 -p tcp -e 1500 -c 2 -i 16 -a 2 -x {2.0 8.0 -1 ------- null}
r -t 1.176096 -s 1 -d 0 -p tcp -e 1540 -c 1 -i 10 -a 1 -x {1.0 7.0 3 ------- null}
+ -t 1.176096 -s 0 -d 3 -p tcp -e 1540 -c 1 -i 10 -a 1 -x {1.0 7.0 3 ------- null}
- -t 1.176096 -s 0 -d 3 -p tcp -e 1540 -c 1 -i 10 -a 1 -x {1.0 7.0 3 ------- null}
h -t 1.176096 -s 0 -d 3 -p tcp -e 1540 -c 1 -i 10 -a 1 -x {1.0 7.0 -1 ------- null}
r -t 1.182256 -s 1 -d 0 -p tcp -e 1540 -c 1 -i 11 -a 1 -x {1.0 7.0 4 ------- null}
+ -t 1.182256 -s 0 -d 3 -p tcp -e 1540 -c 1 -i 11 -a 1 -x {1.0 7.0 4 ------- null}
r -t 1.188416 -s 1 -d 0 -p tcp -e 1540 -c 1 -i 12 -a 1 -x {1.0 7.0 5 ------- null}
+ -t 1.188416 -s 0 -d 3 -p tcp -e 1540 -c 1 -i 12 -a 1 -x {1.0 7.0 5 ------- null}
- -t 1.188416 -s 0 -d 3 -p tcp -e 1540 -c 1 -i 11 -a 1 -x {1.0 7.0 4 ------- null}
h -t 1.188416 -s 0 -d 3 -p tcp -e 1540 -c 1 -i 11 -a 1 -x {1.0 7.0 -1 ------- null}
r -t 1.194576 -s 1 -d 0 -p tcp -e 1540 -c 1 -i 13 -a 1 -x {1.0 7.0 6 ------- null}
+ -t 1.194576 -s 0 -d 3 -p tcp -e 1540 -c 1 -i 13 -a 1 -x {1.0 7.0 6 ------- null}
r -t 1.200256 -s 2 -d 0 -p tcp -e 1500 -c 2 -i 14 -a 2 -x {2.0 8.0 2 ------- null}
+ -t 1.200256 -s 0 -d 3 -p tcp -e 1500 -c 2 -i 14 -a 2 -x {2.0 8.0 2 ------- null}
- -t 1.200736 -s 0 -d 3 -p tcp -e 1540 -c 1 -i 12 -a 1 -x {1.0 7.0 5 ------- null}
h -t 1.200736 -s 0 -d 3 -p tcp -e 1540 -c 1 -i 12 -a 1 -x {1.0 7.0 -1 ------- null}
r -t 1.206256 -s 2 -d 0 -p tcp -e 1500 -c 2 -i 15 -a 2 -x {2.0 8.0 3 ------- null}
+ -t 1.206256 -s 0 -d 3 -p tcp -e 1500 -c 2 -i 15 -a 2 -x {2.0 8.0 3 ------- null}
r -t 1.212256 -s 2 -d 0 -p tcp -e 1500 -c 2 -i 16 -a 2 -x {2.0 8.0 4 ------- null}
+ -t 1.212256 -s 0 -d 3 -p tcp -e 1500 -c 2 -i 16 -a 2 -x {2.0 8.0 4 ------- null}
- -t 1.213056 -s 0 -d 3 -p tcp -e 1540 -c 1 -i 13 -a 1 -x {1.0 7.0 6 ------- null}
h -t 1.213056 -s 0 -d 3 -p tcp -e 1540 -c 1 -i 13 -a 1 -x {1.0 7.0 -1 ------- null}
- -t 1.225376 -s 0 -d 3 -p tcp -e 1500 -c 2 -i 14 -a 2 -x {2.0 8.0 2 ------- null}
h -t 1.225376 -s 0 -d 3 -p tcp -e 1500 -c 2 -i 14 -a 2 -x {2.0 8.0 -1 ------- null}
- -t 1.237376 -s 0 -d 3 -p tcp -e 1500 -c 2 -i 15 -a 2 -x {2.0 8.0 3 ------- null}
h -t 1.237376 -s 0 -d 3 -p tcp -e 1500 -c 2 -i 15 -a 2 -x {2.0 8.0 -1 ------- null}
r -t 1.238416 -s 0 -d 3 -p tcp -e 1540 -c 1 -i 10 -a 1 -x {1.0 7.0 3 ------- null}
h -t 1.238416 -s 3 -d 9 -p tcp -e 1540 -c 1 -i 10 -a 1 -x {1.0 7.0 3 ------- null}
- -t 1.249376 -s 0 -d 3 -p tcp -e 1500 -c 2 -i 16 -a 2 -x {2.0 8.0 4 ------- null}
h -t 1.249376 -s 0 -d 3 -p tcp -e 1500 -c 2 -i 16 -a 2 -x {2.0 8.0 -1 ------- null}
r -t 1.250736 -s 0 -d 3 -p tcp -e 1540 -c 1 -i 11 -a 1 -x {1.0 7.0 4 ------- null}
h -t 1.250736 -s 3 -d 9 -p tcp -e 1540 -c 1 -i 11 -a 1 -x {1.0 7.0 4 ------- null}
r -t 1.263056 -s 0 -d 3 -p tcp -e 1540 -c 1 -i 12 -a 1 -x {1.0 7.0 5 ------- null}
h -t 1.263056 -s 3 -d 9 -p tcp -e 1540 -c 1 -i 12 -a 1 -x {1.0 7.0 5 ------- null}
r -t 1.275376 -s 0 -d 3 -p tcp -e 1540 -c 1 -i 13 -a 1 -x {1.0 7.0 6 ------- null}
h -t 1.275376 -s 3 -d 9 -p tcp -e 1540 -c 1 -i 13 -a 1 -x {1.0 7.0 6 ------- null}
r -t 1.287376 -s 0 -d 3 -p tcp -e 1500 -c 2 -i 14 -a 2 -x {2.0 8.0 2 ------- null}
h -t 1.287376 -s 3 -d 9 -p tcp -e 1500 -c 2 -i 14 -a 2 -x {2.0 8.0 2 ------- null}
+ -t 1.288416 -s 3 -d 9 -p tcp -e 1540 -c 1 -i 10 -a 1 -x {1.0 7.0 3 ------- null}
- -t 1.288416 -s 3 -d 9 -p tcp -e 1540 -c 1 -i 10 -a 1 -x {1.0 7.0 3 ------- null}
h -t 1.288416 -s 3 -d 9 -p tcp -e 1540 -c 1 -i 10 -a 1 -x {1.0 7.0 -1 ------- null}
d -t 1.28842 -s 8 -d 9 -p tcp -e 1540 -c 1 -i 10 -a 1 -x {1.0 7.0 3 ------- null}
d -t 1.28842 -s 6 -d 9 -p tcp -e 1540 -c 1 -i 10 -a 1 -x {1.0 7.0 3 ------- null}
d -t 1.28842 -s 5 -d 9 -p tcp -e 1540 -c 1 -i 10 -a 1 -x {1.0 7.0 3 ------- null}
d -t 1.28842 -s 4 -d 9 -p tcp -e 1540 -c 1 -i 10 -a 1 -x {1.0 7.0 3 ------- null}
r -t 1.299376 -s 0 -d 3 -p tcp -e 1500 -c 2 -i 15 -a 2 -x {2.0 8.0 3 ------- null}
h -t 1.299376 -s 3 -d 9 -p tcp -e 1500 -c 2 -i 15 -a 2 -x {2.0 8.0 3 ------- null}
+ -t 1.300736 -s 3 -d 9 -p tcp -e 1540 -c 1 -i 11 -a 1 -x {1.0 7.0 4 ------- null}
- -t 1.300736 -s 3 -d 9 -p tcp -e 1540 -c 1 -i 11 -a 1 -x {1.0 7.0 4 ------- null}
h -t 1.300736 -s 3 -d 9 -p tcp -e 1540 -c 1 -i 11 -a 1 -x {1.0 7.0 -1 ------- null}
d -t 1.30074 -s 8 -d 9 -p tcp -e 1540 -c 1 -i 11 -a 1 -x {1.0 7.0 4 ------- null}
d -t 1.30074 -s 6 -d 9 -p tcp -e 1540 -c 1 -i 11 -a 1 -x {1.0 7.0 4 ------- null}
d -t 1.30074 -s 5 -d 9 -p tcp -e 1540 -c 1 -i 11 -a 1 -x {1.0 7.0 4 ------- null}
d -t 1.30074 -s 4 -d 9 -p tcp -e 1540 -c 1 -i 11 -a 1 -x {1.0 7.0 4 ------- null}
r -t 1.311376 -s 0 -d 3 -p tcp -e 1500 -c 2 -i 16 -a 2 -x {2.0 8.0 4 ------- null}
h -t 1.311376 -s 3 -d 9 -p tcp -e 1500 -c 2 -i 16 -a 2 -x {2.0 8.0 4 ------- null}
+ -t 1.313056 -s 3 -d 9 -p tcp -e 1540 -c 1 -i 12 -a 1 -x {1.0 7.0 5 ------- null}
- -t 1.313056 -s 3 -d 9 -p tcp -e 1540 -c 1 -i 12 -a 1 -x {1.0 7.0 5 ------- null}
h -t 1.313056 -s 3 -d 9 -p tcp -e 1540 -c 1 -i 12 -a 1 -x {1.0 7.0 -1 ------- null}
d -t 1.31306 -s 8 -d 9 -p tcp -e 1540 -c 1 -i 12 -a 1 -x {1.0 7.0 5 ------- null}
d -t 1.31306 -s 6 -d 9 -p tcp -e 1540 -c 1 -i 12 -a 1 -x {1.0 7.0 5 ------- null}
d -t 1.31306 -s 5 -d 9 -p tcp -e 1540 -c 1 -i 12 -a 1 -x {1.0 7.0 5 ------- null}
d -t 1.31306 -s 4 -d 9 -p tcp -e 1540 -c 1 -i 12 -a 1 -x {1.0 7.0 5 ------- null}
+ -t 1.325376 -s 3 -d 9 -p tcp -e 1540 -c 1 -i 13 -a 1 -x {1.0 7.0 6 ------- null}
- -t 1.325376 -s 3 -d 9 -p tcp -e 1540 -c 1 -i 13 -a 1 -x {1.0 7.0 6 ------- null}
h -t 1.325376 -s 3 -d 9 -p tcp -e 1540 -c 1 -i 13 -a 1 -x {1.0 7.0 -1 ------- null}
d -t 1.32538 -s 8 -d 9 -p tcp -e 1540 -c 1 -i 13 -a 1 -x {1.0 7.0 6 ------- null}
d -t 1.32538 -s 6 -d 9 -p tcp -e 1540 -c 1 -i 13 -a 1 -x {1.0 7.0 6 ------- null}
d -t 1.32538 -s 5 -d 9 -p tcp -e 1540 -c 1 -i 13 -a 1 -x {1.0 7.0 6 ------- null}
d -t 1.32538 -s 4 -d 9 -p tcp -e 1540 -c 1 -i 13 -a 1 -x {1.0 7.0 6 ------- null}
+ -t 1.337376 -s 3 -d 9 -p tcp -e 1500 -c 2 -i 14 -a 2 -x {2.0 8.0 2 ------- null}
- -t 1.337376 -s 3 -d 9 -p tcp -e 1500 -c 2 -i 14 -a 2 -x {2.0 8.0 2 ------- null}
h -t 1.337376 -s 3 -d 9 -p tcp -e 1500 -c 2 -i 14 -a 2 -x {2.0 8.0 -1 ------- null}
d -t 1.33738 -s 7 -d 9 -p tcp -e 1500 -c 2 -i 14 -a 2 -x {2.0 8.0 2 ------- null}
d -t 1.33738 -s 6 -d 9 -p tcp -e 1500 -c 2 -i 14 -a 2 -x {2.0 8.0 2 ------- null}
d -t 1.33738 -s 5 -d 9 -p tcp -e 1500 -c 2 -i 14 -a 2 -x {2.0 8.0 2 ------- null}
d -t 1.33738 -s 4 -d 9 -p tcp -e 1500 -c 2 -i 14 -a 2 -x {2.0 8.0 2 ------- null}
r -t 1.33842 -s 9 -d 7 -p tcp -e 1540 -c 1 -i 10 -a 1 -x {1.0 7.0 3 ------- null}
h -t 1.33842 -s 7 -d 9 -p ack -e 40 -c 1 -i 17 -a 1 -x {7.0 1.0 3 ------- null}
+ -t 1.349376 -s 3 -d 9 -p tcp -e 1500 -c 2 -i 15 -a 2 -x {2.0 8.0 3 ------- null}
- -t 1.349376 -s 3 -d 9 -p tcp -e 1500 -c 2 -i 15 -a 2 -x {2.0 8.0 3 ------- null}
h -t 1.349376 -s 3 -d 9 -p tcp -e 1500 -c 2 -i 15 -a 2 -x {2.0 8.0 -1 ------- null}
d -t 1.34938 -s 7 -d 9 -p tcp -e 1500 -c 2 -i 15 -a 2 -x {2.0 8.0 3 ------- null}
d -t 1.34938 -s 6 -d 9 -p tcp -e 1500 -c 2 -i 15 -a 2 -x {2.0 8.0 3 ------- null}
d -t 1.34938 -s 5 -d 9 -p tcp -e 1500 -c 2 -i 15 -a 2 -x {2.0 8.0 3 ------- null}
d -t 1.34938 -s 4 -d 9 -p tcp -e 1500 -c 2 -i 15 -a 2 -x {2.0 8.0 3 ------- null}
r -t 1.35074 -s 9 -d 7 -p tcp -e 1540 -c 1 -i 11 -a 1 -x {1.0 7.0 4 ------- null}
h -t 1.35074 -s 7 -d 9 -p ack -e 40 -c 1 -i 18 -a 1 -x {7.0 1.0 4 ------- null}
+ -t 1.361376 -s 3 -d 9 -p tcp -e 1500 -c 2 -i 16 -a 2 -x {2.0 8.0 4 ------- null}
- -t 1.361376 -s 3 -d 9 -p tcp -e 1500 -c 2 -i 16 -a 2 -x {2.0 8.0 4 ------- null}
h -t 1.361376 -s 3 -d 9 -p tcp -e 1500 -c 2 -i 16 -a 2 -x {2.0 8.0 -1 ------- null}
d -t 1.36138 -s 7 -d 9 -p tcp -e 1500 -c 2 -i 16 -a 2 -x {2.0 8.0 4 ------- null}
d -t 1.36138 -s 6 -d 9 -p tcp -e 1500 -c 2 -i 16 -a 2 -x {2.0 8.0 4 ------- null}
d -t 1.36138 -s 5 -d 9 -p tcp -e 1500 -c 2 -i 16 -a 2 -x {2.0 8.0 4 ------- null}
d -t 1.36138 -s 4 -d 9 -p tcp -e 1500 -c 2 -i 16 -a 2 -x {2.0 8.0 4 ------- null}
r -t 1.36306 -s 9 -d 7 -p tcp -e 1540 -c 1 -i 12 -a 1 -x {1.0 7.0 5 ------- null}
h -t 1.36306 -s 7 -d 9 -p ack -e 40 -c 1 -i 19 -a 1 -x {7.0 1.0 5 ------- null}
r -t 1.37538 -s 9 -d 7 -p tcp -e 1540 -c 1 -i 13 -a 1 -x {1.0 7.0 6 ------- null}
h -t 1.37538 -s 7 -d 9 -p ack -e 40 -c 1 -i 20 -a 1 -x {7.0 1.0 6 ------- null}
r -t 1.38738 -s 9 -d 8 -p tcp -e 1500 -c 2 -i 14 -a 2 -x {2.0 8.0 2 ------- null}
h -t 1.38738 -s 8 -d 9 -p ack -e 40 -c 2 -i 21 -a 2 -x {8.0 2.0 2 ------- null}
+ -t 1.38842 -s 7 -d 9 -p ack -e 40 -c 1 -i 17 -a 1 -x {7.0 1.0 3 ------- null}
- -t 1.38842 -s 7 -d 9 -p ack -e 40 -c 1 -i 17 -a 1 -x {7.0 1.0 3 ------- null}
h -t 1.38842 -s 7 -d 9 -p ack -e 40 -c 1 -i 17 -a 1 -x {7.0 1.0 -1 ------- null}
d -t 1.388424 -s 8 -d 9 -p ack -e 40 -c 1 -i 17 -a 1 -x {7.0 1.0 3 ------- null}
d -t 1.388424 -s 6 -d 9 -p ack -e 40 -c 1 -i 17 -a 1 -x {7.0 1.0 3 ------- null}
d -t 1.388424 -s 5 -d 9 -p ack -e 40 -c 1 -i 17 -a 1 -x {7.0 1.0 3 ------- null}
d -t 1.388424 -s 4 -d 9 -p ack -e 40 -c 1 -i 17 -a 1 -x {7.0 1.0 3 ------- null}
r -t 1.39938 -s 9 -d 8 -p tcp -e 1500 -c 2 -i 15 -a 2 -x {2.0 8.0 3 ------- null}
h -t 1.39938 -s 8 -d 9 -p ack -e 40 -c 2 -i 22 -a 2 -x {8.0 2.0 3 ------- null}
+ -t 1.40074 -s 7 -d 9 -p ack -e 40 -c 1 -i 18 -a 1 -x {7.0 1.0 4 ------- null}
- -t 1.40074 -s 7 -d 9 -p ack -e 40 -c 1 -i 18 -a 1 -x {7.0 1.0 4 ------- null}
h -t 1.40074 -s 7 -d 9 -p ack -e 40 -c 1 -i 18 -a 1 -x {7.0 1.0 -1 ------- null}
d -t 1.400744 -s 8 -d 9 -p ack -e 40 -c 1 -i 18 -a 1 -x {7.0 1.0 4 ------- null}
d -t 1.400744 -s 6 -d 9 -p ack -e 40 -c 1 -i 18 -a 1 -x {7.0 1.0 4 ------- null}
d -t 1.400744 -s 5 -d 9 -p ack -e 40 -c 1 -i 18 -a 1 -x {7.0 1.0 4 ------- null}
d -t 1.400744 -s 4 -d 9 -p ack -e 40 -c 1 -i 18 -a 1 -x {7.0 1.0 4 ------- null}
r -t 1.41138 -s 9 -d 8 -p tcp -e 1500 -c 2 -i 16 -a 2 -x {2.0 8.0 4 ------- null}
h -t 1.41138 -s 8 -d 9 -p ack -e 40 -c 2 -i 23 -a 2 -x {8.0 2.0 4 ------- null}
+ -t 1.41306 -s 7 -d 9 -p ack -e 40 -c 1 -i 19 -a 1 -x {7.0 1.0 5 ------- null}
- -t 1.41306 -s 7 -d 9 -p ack -e 40 -c 1 -i 19 -a 1 -x {7.0 1.0 5 ------- null}
h -t 1.41306 -s 7 -d 9 -p ack -e 40 -c 1 -i 19 -a 1 -x {7.0 1.0 -1 ------- null}
d -t 1.413064 -s 8 -d 9 -p ack -e 40 -c 1 -i 19 -a 1 -x {7.0 1.0 5 ------- null}
d -t 1.413064 -s 6 -d 9 -p ack -e 40 -c 1 -i 19 -a 1 -x {7.0 1.0 5 ------- null}
d -t 1.413064 -s 5 -d 9 -p ack -e 40 -c 1 -i 19 -a 1 -x {7.0 1.0 5 ------- null}
d -t 1.413064 -s 4 -d 9 -p ack -e 40 -c 1 -i 19 -a 1 -x {7.0 1.0 5 ------- null}
+ -t 1.42538 -s 7 -d 9 -p ack -e 40 -c 1 -i 20 -a 1 -x {7.0 1.0 6 ------- null}
- -t 1.42538 -s 7 -d 9 -p ack -e 40 -c 1 -i 20 -a 1 -x {7.0 1.0 6 ------- null}
h -t 1.42538 -s 7 -d 9 -p ack -e 40 -c 1 -i 20 -a 1 -x {7.0 1.0 -1 ------- null}
d -t 1.425384 -s 8 -d 9 -p ack -e 40 -c 1 -i 20 -a 1 -x {7.0 1.0 6 ------- null}
d -t 1.425384 -s 6 -d 9 -p ack -e 40 -c 1 -i 20 -a 1 -x {7.0 1.0 6 ------- null}
d -t 1.425384 -s 5 -d 9 -p ack -e 40 -c 1 -i 20 -a 1 -x {7.0 1.0 6 ------- null}
d -t 1.425384 -s 4 -d 9 -p ack -e 40 -c 1 -i 20 -a 1 -x {7.0 1.0 6 ------- null}
+ -t 1.43738 -s 8 -d 9 -p ack -e 40 -c 2 -i 21 -a 2 -x {8.0 2.0 2 ------- null}
- -t 1.43738 -s 8 -d 9 -p ack -e 40 -c 2 -i 21 -a 2 -x {8.0 2.0 2 ------- null}
h -t 1.43738 -s 8 -d 9 -p ack -e 40 -c 2 -i 21 -a 2 -x {8.0 2.0 -1 ------- null}
d -t 1.437384 -s 7 -d 9 -p ack -e 40 -c 2 -i 21 -a 2 -x {8.0 2.0 2 ------- null}
d -t 1.437384 -s 6 -d 9 -p ack -e 40 -c 2 -i 21 -a 2 -x {8.0 2.0 2 ------- null}
d -t 1.437384 -s 5 -d 9 -p ack -e 40 -c 2 -i 21 -a 2 -x {8.0 2.0 2 ------- null}
d -t 1.437384 -s 4 -d 9 -p ack -e 40 -c 2 -i 21 -a 2 -x {8.0 2.0 2 ------- null}
r -t 1.438424 -s 9 -d 3 -p ack -e 40 -c 1 -i 17 -a 1 -x {7.0 1.0 3 ------- null}
+ -t 1.438424 -s 3 -d 0 -p ack -e 40 -c 1 -i 17 -a 1 -x {7.0 1.0 3 ------- null}
- -t 1.438424 -s 3 -d 0 -p ack -e 40 -c 1 -i 17 -a 1 -x {7.0 1.0 3 ------- null}
h -t 1.438424 -s 3 -d 0 -p ack -e 40 -c 1 -i 17 -a 1 -x {7.0 1.0 -1 ------- null}
+ -t 1.44938 -s 8 -d 9 -p ack -e 40 -c 2 -i 22 -a 2 -x {8.0 2.0 3 ------- null}
- -t 1.44938 -s 8 -d 9 -p ack -e 40 -c 2 -i 22 -a 2 -x {8.0 2.0 3 ------- null}
h -t 1.44938 -s 8 -d 9 -p ack -e 40 -c 2 -i 22 -a 2 -x {8.0 2.0 -1 ------- null}
d -t 1.449384 -s 7 -d 9 -p ack -e 40 -c 2 -i 22 -a 2 -x {8.0 2.0 3 ------- null}
d -t 1.449384 -s 6 -d 9 -p ack -e 40 -c 2 -i 22 -a 2 -x {8.0 2.0 3 ------- null}
d -t 1.449384 -s 5 -d 9 -p ack -e 40 -c 2 -i 22 -a 2 -x {8.0 2.0 3 ------- null}
d -t 1.449384 -s 4 -d 9 -p ack -e 40 -c 2 -i 22 -a 2 -x {8.0 2.0 3 ------- null}
r -t 1.450744 -s 9 -d 3 -p ack -e 40 -c 1 -i 18 -a 1 -x {7.0 1.0 4 ------- null}
+ -t 1.450744 -s 3 -d 0 -p ack -e 40 -c 1 -i 18 -a 1 -x {7.0 1.0 4 ------- null}
- -t 1.450744 -s 3 -d 0 -p ack -e 40 -c 1 -i 18 -a 1 -x {7.0 1.0 4 ------- null}
h -t 1.450744 -s 3 -d 0 -p ack -e 40 -c 1 -i 18 -a 1 -x {7.0 1.0 -1 ------- null}
+ -t 1.46138 -s 8 -d 9 -p ack -e 40 -c 2 -i 23 -a 2 -x {8.0 2.0 4 ------- null}
- -t 1.46138 -s 8 -d 9 -p ack -e 40 -c 2 -i 23 -a 2 -x {8.0 2.0 4 ------- null}
h -t 1.46138 -s 8 -d 9 -p ack -e 40 -c 2 -i 23 -a 2 -x {8.0 2.0 -1 ------- null}
d -t 1.461384 -s 7 -d 9 -p ack -e 40 -c 2 -i 23 -a 2 -x {8.0 2.0 4 ------- null}
d -t 1.461384 -s 6 -d 9 -p ack -e 40 -c 2 -i 23 -a 2 -x {8.0 2.0 4 ------- null}
d -t 1.461384 -s 5 -d 9 -p ack -e 40 -c 2 -i 23 -a 2 -x {8.0 2.0 4 ------- null}
d -t 1.461384 -s 4 -d 9 -p ack -e 40 -c 2 -i 23 -a 2 -x {8.0 2.0 4 ------- null}
r -t 1.463064 -s 9 -d 3 -p ack -e 40 -c 1 -i 19 -a 1 -x {7.0 1.0 5 ------- null}
+ -t 1.463064 -s 3 -d 0 -p ack -e 40 -c 1 -i 19 -a 1 -x {7.0 1.0 5 ------- null}
- -t 1.463064 -s 3 -d 0 -p ack -e 40 -c 1 -i 19 -a 1 -x {7.0 1.0 5 ------- null}