+ 0.3 1 0 tcp 40 ------- 1 1.0 7.0 0 0
- 0.3 1 0 tcp 40 ------- 1 1.0 7.0 0 0
+ 0.3 2 0 tcp 1500 ------- 2 2.0 8.0 0 1
- 0.3 2 0 tcp 1500 ------- 2 2.0 8.0 0 1
r 0.35016 1 0 tcp 40 ------- 1 1.0 7.0 0 0
+ 0.35016 0 3 tcp 40 ------- 1 1.0 7.0 0 0
- 0.35016 0 3 tcp 40 ------- 1 1.0 7.0 0 0
r 0.356 2 0 tcp 1500 ------- 2 2.0 8.0 0 1
+ 0.356 0 3 tcp 1500 ------- 2 2.0 8.0 0 1
- 0.356 0 3 tcp 1500 ------- 2 2.0 8.0 0 1
r 0.40048 0 3 tcp 40 ------- 1 1.0 7.0 0 0
h 0.40048 3 9 tcp 40 ------- 1 1.0 7.0 0 0
r 0.418 0 3 tcp 1500 ------- 2 2.0 8.0 0 1
h 0.418 3 9 tcp 1500 ------- 2 2.0 8.0 0 1
+ 0.45048 3 9 tcp 40 ------- 1 1.0 7.0 0 0
- 0.45048 3 9 tcp 40 ------- 1 1.0 7.0 0 0
d 0.450484 8 9 tcp 40 ------- 1 1.0 7.0 0 0
d 0.450484 6 9 tcp 40 ------- 1 1.0 7.0 0 0
d 0.450484 5 9 tcp 40 ------- 1 1.0 7.0 0 0
d 0.450484 4 9 tcp 40 ------- 1 1.0 7.0 0 0
+ 0.468 3 9 tcp 1500 ------- 2 2.0 8.0 0 1
- 0.468 3 9 tcp 1500 ------- 2 2.0 8.0 0 1
d 0.468004 7 9 tcp 1500 ------- 2 2.0 8.0 0 1
d 0.468004 6 9 tcp 1500 ------- 2 2.0 8.0 0 1
d 0.468004 5 9 tcp 1500 ------- 2 2.0 8.0 0 1
d 0.468004 4 9 tcp 1500 ------- 2 2.0 8.0 0 1
r 0.500484 9 7 tcp 40 ------- 1 1.0 7.0 0 0
h 0.500484 7 9 ack 40 ------- 1 7.0 1.0 0 2
r 0.518004 9 8 tcp 1500 ------- 2 2.0 8.0 0 1
h 0.518004 8 9 ack 40 ------- 2 8.0 2.0 0 3
+ 0.550484 7 9 ack 40 ------- 1 7.0 1.0 0 2
- 0.550484 7 9 ack 40 ------- 1 7.0 1.0 0 2
d 0.550488 8 9 ack 40 ------- 1 7.0 1.0 0 2
d 0.550488 6 9 ack 40 ------- 1 7.0 1.0 0 2
d 0.550488 5 9 ack 40 ------- 1 7.0 1.0 0 2
d 0.550488 4 9 ack 40 ------- 1 7.0 1.0 0 2
+ 0.568004 8 9 ack 40 ------- 2 8.0 2.0 0 3
- 0.568004 8 9 ack 40 ------- 2 8.0 2.0 0 3
d 0.568008 7 9 ack 40 ------- 2 8.0 2.0 0 3
d 0.568008 6 9 ack 40 ------- 2 8.0 2.0 0 3
d 0.568008 5 9 ack 40 ------- 2 8.0 2.0 0 3
d 0.568008 4 9 ack 40 ------- 2 8.0 2.0 0 3
r 0.600488 9 3 ack 40 ------- 1 7.0 1.0 0 2
+ 0.600488 3 0 ack 40 ------- 1 7.0 1.0 0 2
- 0.600488 3 0 ack 40 ------- 1 7.0 1.0 0 2
r 0.618008 9 3 ack 40 ------- 2 8.0 2.0 0 3
+ 0.618008 3 0 ack 40 ------- 2 8.0 2.0 0 3
- 0.618008 3 0 ack 40 ------- 2 8.0 2.0 0 3
r 0.650808 3 0 ack 40 ------- 1 7.0 1.0 0 2
+ 0.650808 0 1 ack 40 ------- 1 7.0 1.0 0 2
- 0.650808 0 1 ack 40 ------- 1 7.0 1.0 0 2
r 0.668328 3 0 ack 40 ------- 2 8.0 2.0 0 3
+ 0.668328 0 2 ack 40 ------- 2 8.0 2.0 0 3
- 0.668328 0 2 ack 40 ------- 2 8.0 2.0 0 3
r 0.700968 0 1 ack 40 ------- 1 7.0 1.0 0 2
+ 0.700968 1 0 tcp 1540 ------- 1 1.0 7.0 1 4
- 0.700968 1 0 tcp 1540 ------- 1 1.0 7.0 1 4
+ 0.700968 1 0 tcp 1540 ------- 1 1.0 7.0 2 5
- 0.707128 1 0 tcp 1540 ------- 1 1.0 7.0 2 5
r 0.718488 0 2 ack 40 ------- 2 8.0 2.0 0 3
+ 0.718488 2 0 tcp 1500 ------- 2 2.0 8.0 1 6
- 0.718488 2 0 tcp 1500 ------- 2 2.0 8.0 1 6
r 0.757128 1 0 tcp 1540 ------- 1 1.0 7.0 1 4
+ 0.757128 0 3 tcp 1540 ------- 1 1.0 7.0 1 4
- 0.757128 0 3 tcp 1540 ------- 1 1.0 7.0 1 4
r 0.763288 1 0 tcp 1540 ------- 1 1.0 7.0 2 5
+ 0.763288 0 3 tcp 1540 ------- 1 1.0 7.0 2 5
- 0.769448 0 3 tcp 1540 ------- 1 1.0 7.0 2 5
r 0.774488 2 0 tcp 1500 ------- 2 2.0 8.0 1 6
+ 0.774488 0 3 tcp 1500 ------- 2 2.0 8.0 1 6
- 0.781768 0 3 tcp 1500 ------- 2 2.0 8.0 1 6
r 0.819448 0 3 tcp 1540 ------- 1 1.0 7.0 1 4
h 0.819448 3 9 tcp 1540 ------- 1 1.0 7.0 1 4
r 0.831768 0 3 tcp 1540 ------- 1 1.0 7.0 2 5
h 0.831768 3 9 tcp 1540 ------- 1 1.0 7.0 2 5
r 0.843768 0 3 tcp 1500 ------- 2 2.0 8.0 1 6
h 0.843768 3 9 tcp 1500 ------- 2 2.0 8.0 1 6
+ 0.869448 3 9 tcp 1540 ------- 1 1.0 7.0 1 4
- 0.869448 3 9 tcp 1540 ------- 1 1.0 7.0 1 4
d 0.869452 8 9 tcp 1540 ------- 1 1.0 7.0 1 4
d 0.869452 6 9 tcp 1540 ------- 1 1.0 7.0 1 4
d 0.869452 5 9 tcp 1540 ------- 1 1.0 7.0 1 4
d 0.869452 4 9 tcp 1540 ------- 1 1.0 7.0 1 4
+ 0.881768 3 9 tcp 1540 ------- 1 1.0 7.0 2 5
- 0.881768 3 9 tcp 1540 ------- 1 1.0 7.0 2 5
d 0.881772 8 9 tcp 1540 ------- 1 1.0 7.0 2 5
d 0.881772 6 9 tcp 1540 ------- 1 1.0 7.0 2 5
d 0.881772 5 9 tcp 1540 ------- 1 1.0 7.0 2 5
d 0.881772 4 9 tcp 1540 ------- 1 1.0 7.0 2 5
+ 0.893768 3 9 tcp 1500 ------- 2 2.0 8.0 1 6
- 0.893768 3 9 tcp 1500 ------- 2 2.0 8.0 1 6
d 0.893772 7 9 tcp 1500 ------- 2 2.0 8.0 1 6
d 0.893772 6 9 tcp 1500 ------- 2 2.0 8.0 1 6
d 0.893772 5 9 tcp 1500 ------- 2 2.0 8.0 1 6
d 0.893772 4 9 tcp 1500 ------- 2 2.0 8.0 1 6
r 0.919452 9 7 tcp 1540 ------- 1 1.0 7.0 1 4
h 0.919452 7 9 ack 40 ------- 1 7.0 1.0 1 7
r 0.931772 9 7 tcp 1540 ------- 1 1.0 7.0 2 5
h 0.931772 7 9 ack 40 ------- 1 7.0 1.0 2 8
r 0.943772 9 8 tcp 1500 ------- 2 2.0 8.0 1 6
h 0.943772 8 9 ack 40 ------- 2 8.0 2.0 1 9
+ 0.969452 7 9 ack 40 ------- 1 7.0 1.0 1 7
- 0.969452 7 9 ack 40 ------- 1 7.0 1.0 1 7
d 0.969456 8 9 ack 40 ------- 1 7.0 1.0 1 7
d 0.969456 6 9 ack 40 ------- 1 7.0 1.0 1 7
d 0.969456 5 9 ack 40 ------- 1 7.0 1.0 1 7
d 0.969456 4 9 ack 40 ------- 1 7.0 1.0 1 7
+ 0.981772 7 9 ack 40 ------- 1 7.0 1.0 2 8
- 0.981772 7 9 ack 40 ------- 1 7.0 1.0 2 8
d 0.981776 8 9 ack 40 ------- 1 7.0 1.0 2 8
d 0.981776 6 9 ack 40 ------- 1 7.0 1.0 2 8
d 0.981776 5 9 ack 40 ------- 1 7.0 1.0 2 8
d 0.981776 4 9 ack 40 ------- 1 7.0 1.0 2 8
+ 0.993772 8 9 ack 40 ------- 2 8.0 2.0 1 9
- 0.993772 8 9 ack 40 ------- 2 8.0 2.0 1 9
d 0.993776 7 9 ack 40 ------- 2 8.0 2.0 1 9
d 0.993776 6 9 ack 40 ------- 2 8.0 2.0 1 9
d 0.993776 5 9 ack 40 ------- 2 8.0 2.0 1 9
d 0.993776 4 9 ack 40 ------- 2 8.0 2.0 1 9
r 1.019456 9 3 ack 40 ------- 1 7.0 1.0 1 7
+ 1.019456 3 0 ack 40 ------- 1 7.0 1.0 1 7
- 1.019456 3 0 ack 40 ------- 1 7.0 1.0 1 7
r 1.031776 9 3 ack 40 ------- 1 7.0 1.0 2 8
+ 1.031776 3 0 ack 40 ------- 1 7.0 1.0 2 8
- 1.031776 3 0 ack 40 ------- 1 7.0 1.0 2 8
r 1.043776 9 3 ack 40 ------- 2 8.0 2.0 1 9
+ 1.043776 3 0 ack 40 ------- 2 8.0 2.0 1 9
- 1.043776 3 0 ack 40 ------- 2 8.0 2.0 1 9
r 1.069776 3 0 ack 40 ------- 1 7.0 1.0 1 7
+ 1.069776 0 1 ack 40 ------- 1 7.0 1.0 1 7
- 1.069776 0 1 ack 40 ------- 1 7.0 1.0 1 7
r 1.082096 3 0 ack 40 ------- 1 7.0 1.0 2 8
+ 1.082096 0 1 ack 40 ------- 1 7.0 1.0 2 8
- 1.082096 0 1 ack 40 ------- 1 7.0 1.0 2 8
r 1.094096 3 0 ack 40 ------- 2 8.0 2.0 1 9
+ 1.094096 0 2 ack 40 ------- 2 8.0 2.0 1 9
- 1.094096 0 2 ack 40 ------- 2 8.0 2.0 1 9
r 1.119936 0 1 ack 40 ------- 1 7.0 1.0 1 7
+ 1.119936 1 0 tcp 1540 ------- 1 1.0 7.0 3 10
- 1.119936 1 0 tcp 1540 ------- 1 1.0 7.0 3 10
+ 1.119936 1 0 tcp 1540 ------- 1 1.0 7.0 4 11
- 1.126096 1 0 tcp 1540 ------- 1 1.0 7.0 4 11
r 1.132256 0 1 ack 40 ------- 1 7.0 1.0 2 8
+ 1.132256 1 0 tcp 1540 ------- 1 1.0 7.0 5 12
- 1.132256 1 0 tcp 1540 ------- 1 1.0 7.0 5 12
+ 1.132256 1 0 tcp 1540 ------- 1 1.0 7.0 6 13
- 1.138416 1 0 tcp 1540 ------- 1 1.0 7.0 6 13
r 1.144256 0 2 ack 40 ------- 2 8.0 2.0 1 9
+ 1.144256 2 0 tcp 1500 ------- 2 2.0 8.0 2 14
- 1.144256 2 0 tcp 1500 ------- 2 2.0 8.0 2 14
+ 1.144256 2 0 tcp 1500 ------- 2 2.0 8.0 3 15
+ 1.144256 2 0 tcp 1500 ------- 2 2.0 8.0 4 16
- 1.150256 2 0 tcp 1500 ------- 2 2.0 8.0 3 15
- 1.156256 2 0 tcp 1500 ------- 2 2.0 8.0 4 16
r 1.176096 1 0 tcp 1540 ------- 1 1.0 7.0 3 10
+ 1.176096 0 3 tcp 1540 ------- 1 1.0 7.0 3 10
- 1.176096 0 3 tcp 1540 ------- 1 1.0 7.0 3 10
r 1.182256 1 0 tcp 1540 ------- 1 1.0 7.0 4 11
+ 1.182256 0 3 tcp 1540 ------- 1 1.0 7.0 4 11
r 1.188416 1 0 tcp 1540 ------- 1 1.0 7.0 5 12
+ 1.188416 0 3 tcp 1540 ------- 1 1.0 7.0 5 12
- 1.188416 0 3 tcp 1540 ------- 1 1.0 7.0 4 11
r 1.194576 1 0 tcp 1540 ------- 1 1.0 7.0 6 13
+ 1.194576 0 3 tcp 1540 ------- 1 1.0 7.0 6 13
r 1.200256 2 0 tcp 1500 ------- 2 2.0 8.0 2 14
+ 1.200256 0 3 tcp 1500 ------- 2 2.0 8.0 2 14
- 1.200736 0 3 tcp 1540 ------- 1 1.0 7.0 5 12
r 1.206256 2 0 tcp 1500 ------- 2 2.0 8.0 3 15
+ 1.206256 0 3 tcp 1500 ------- 2 2.0 8.0 3 15
r 1.212256 2 0 tcp 1500 ------- 2 2.0 8.0 4 16
+ 1.212256 0 3 tcp 1500 ------- 2 2.0 8.0 4 16
- 1.213056 0 3 tcp 1540 ------- 1 1.0 7.0 6 13
- 1.225376 0 3 tcp 1500 ------- 2 2.0 8.0 2 14
- 1.237376 0 3 tcp 1500 ------- 2 2.0 8.0 3 15
r 1.238416 0 3 tcp 1540 ------- 1 1.0 7.0 3 10
h 1.238416 3 9 tcp 1540 ------- 1 1.0 7.0 3 10
- 1.249376 0 3 tcp 1500 ------- 2 2.0 8.0 4 16
r 1.250736 0 3 tcp 1540 ------- 1 1.0 7.0 4 11
h 1.250736 3 9 tcp 1540 ------- 1 1.0 7.0 4 11
r 1.263056 0 3 tcp 1540 ------- 1 1.0 7.0 5 12
h 1.263056 3 9 tcp 1540 ------- 1 1.0 7.0 5 12
r 1.275376 0 3 tcp 1540 ------- 1 1.0 7.0 6 13
h 1.275376 3 9 tcp 1540 ------- 1 1.0 7.0 6 13
r 1.287376 0 3 tcp 1500 ------- 2 2.0 8.0 2 14
h 1.287376 3 9 tcp 1500 ------- 2 2.0 8.0 2 14
+ 1.288416 3 9 tcp 1540 ------- 1 1.0 7.0 3 10
- 1.288416 3 9 tcp 1540 ------- 1 1.0 7.0 3 10
d 1.28842 8 9 tcp 1540 ------- 1 1.0 7.0 3 10
d 1.28842 6 9 tcp 1540 ------- 1 1.0 7.0 3 10
d 1.28842 5 9 tcp 1540 ------- 1 1.0 7.0 3 10
d 1.28842 4 9 tcp 1540 ------- 1 1.0 7.0 3 10
r 1.299376 0 3 tcp 1500 ------- 2 2.0 8.0 3 15
h 1.299376 3 9 tcp 1500 ------- 2 2.0 8.0 3 15
+ 1.300736 3 9 tcp 1540 ------- 1 1.0 7.0 4 11
- 1.300736 3 9 tcp 1540 ------- 1 1.0 7.0 4 11
d 1.30074 8 9 tcp 1540 ------- 1 1.0 7.0 4 11
d 1.30074 6 9 tcp 1540 ------- 1 1.0 7.0 4 11
d 1.30074 5 9 tcp 1540 ------- 1 1.0 7.0 4 11
d 1.30074 4 9 tcp 1540 ------- 1 1.0 7.0 4 11
r 1.311376 0 3 tcp 1500 ------- 2 2.0 8.0 4 16
h 1.311376 3 9 tcp 1500 ------- 2 2.0 8.0 4 16
+ 1.313056 3 9 tcp 1540 ------- 1 1.0 7.0 5 12
- 1.313056 3 9 tcp 1540 ------- 1 1.0 7.0 5 12
d 1.31306 8 9 tcp 1540 ------- 1 1.0 7.0 5 12
d 1.31306 6 9 tcp 1540 ------- 1 1.0 7.0 5 12
d 1.31306 5 9 tcp 1540 ------- 1 1.0 7.0 5 12
d 1.31306 4 9 tcp 1540 ------- 1 1.0 7.0 5 12
+ 1.325376 3 9 tcp 1540 ------- 1 1.0 7.0 6 13
- 1.325376 3 9 tcp 1540 ------- 1 1.0 7.0 6 13
d 1.32538 8 9 tcp 1540 ------- 1 1.0 7.0 6 13
d 1.32538 6 9 tcp 1540 ------- 1 1.0 7.0 6 13
d 1.32538 5 9 tcp 1540 ------- 1 1.0 7.0 6 13
d 1.32538 4 9 tcp 1540 ------- 1 1.0 7.0 6 13
+ 1.337376 3 9 tcp 1500 ------- 2 2.0 8.0 2 14
- 1.337376 3 9 tcp 1500 ------- 2 2.0 8.0 2 14
d 1.33738 7 9 tcp 1500 ------- 2 2.0 8.0 2 14
d 1.33738 6 9 tcp 1500 ------- 2 2.0 8.0 2 14
d 1.33738 5 9 tcp 1500 ------- 2 2.0 8.0 2 14
d 1.33738 4 9 tcp 1500 ------- 2 2.0 8.0 2 14
r 1.33842 9 7 tcp 1540 ------- 1 1.0 7.0 3 10
h 1.33842 7 9 ack 40 ------- 1 7.0 1.0 3 17
+ 1.349376 3 9 tcp 1500 ------- 2 2.0 8.0 3 15
- 1.349376 3 9 tcp 1500 ------- 2 2.0 8.0 3 15
d 1.34938 7 9 tcp 1500 ------- 2 2.0 8.0 3 15
d 1.34938 6 9 tcp 1500 ------- 2 2.0 8.0 3 15
d 1.34938 5 9 tcp 1500 ------- 2 2.0 8.0 3 15
d 1.34938 4 9 tcp 1500 ------- 2 2.0 8.0 3 15
r 1.35074 9 7 tcp 1540 ------- 1 1.0 7.0 4 11
h 1.35074 7 9 ack 40 ------- 1 7.0 1.0 4 18
+ 1.361376 3 9 tcp 1500 ------- 2 2.0 8.0 4 16
- 1.361376 3 9 tcp 1500 ------- 2 2.0 8.0 4 16
d 1.36138 7 9 tcp 1500 ------- 2 2.0 8.0 4 16
d 1.36138 6 9 tcp 1500 ------- 2 2.0 8.0 4 16
d 1.36138 5 9 tcp 1500 ------- 2 2.0 8.0 4 16
d 1.36138 4 9 tcp 1500 ------- 2 2.0 8.0 4 16
r 1.36306 9 7 tcp 1540 ------- 1 1.0 7.0 5 12
h 1.36306 7 9 ack 40 ------- 1 7.0 1.0 5 19
r 1.37538 9 7 tcp 1540 ------- 1 1.0 7.0 6 13
h 1.37538 7 9 ack 40 ------- 1 7.0 1.0 6 20
r 1.38738 9 8 tcp 1500 ------- 2 2.0 8.0 2 14
h 1.38738 8 9 ack 40 ------- 2 8.0 2.0 2 21
+ 1.38842 7 9 ack 40 ------- 1 7.0 1.0 3 17
- 1.38842 7 9 ack 40 ------- 1 7.0 1.0 3 17
d 1.388424 8 9 ack 40 ------- 1 7.0 1.0 3 17
d 1.388424 6 9 ack 40 ------- 1 7.0 1.0 3 17
d 1.388424 5 9 ack 40 ------- 1 7.0 1.0 3 17
d 1.388424 4 9 ack 40 ------- 1 7.0 1.0 3 17
r 1.39938 9 8 tcp 1500 ------- 2 2.0 8.0 3 15
h 1.39938 8 9 ack 40 ------- 2 8.0 2.0 3 22
+ 1.40074 7 9 ack 40 ------- 1 7.0 1.0 4 18
- 1.40074 7 9 ack 40 ------- 1 7.0 1.0 4 18
d 1.400744 8 9 ack 40 ------- 1 7.0 1.0 4 18
d 1.400744 6 9 ack 40 ------- 1 7.0 1.0 4 18
d 1.400744 5 9 ack 40 ------- 1 7.0 1.0 4 18
d 1.400744 4 9 ack 40 ------- 1 7.0 1.0 4 18
r 1.41138 9 8 tcp 1500 ------- 2 2.0 8.0 4 16
h 1.41138 8 9 ack 40 ------- 2 8.0 2.0 4 23
+ 1.41306 7 9 ack 40 ------- 1 7.0 1.0 5 19
- 1.41306 7 9 ack 40 ------- 1 7.0 1.0 5 19
d 1.413064 8 9 ack 40 ------- 1 7.0 1.0 5 19
d 1.413064 6 9 ack 40 ------- 1 7.0 1.0 5 19
d 1.413064 5 9 ack 40 ------- 1 7.0 1.0 5 19
d 1.413064 4 9 ack 40 ------- 1 7.0 1.0 5 19
+ 1.42538 7 9 ack 40 ------- 1 7.0 1.0 6 20
- 1.42538 7 9 ack 40 ------- 1 7.0 1.0 6 20
d 1.425384 8 9 ack 40 ------- 1 7.0 1.0 6 20
d 1.425384 6 9 ack 40 ------- 1 7.0 1.0 6 20
d 1.425384 5 9 ack 40 ------- 1 7.0 1.0 6 20
d 1.425384 4 9 ack 40 ------- 1 7.0 1.0 6 20
+ 1.43738 8 9 ack 40 ------- 2 8.0 2.0 2 21
- 1.43738 8 9 ack 40 ------- 2 8.0 2.0 2 21
d 1.437384 7 9 ack 40 ------- 2 8.0 2.0 2 21
d 1.437384 6 9 ack 40 ------- 2 8.0 2.0 2 21
d 1.437384 5 9 ack 40 ------- 2 8.0 2.0 2 21
d 1.437384 4 9 ack 40 ------- 2 8.0 2.0 2 21
r 1.438424 9 3 ack 40 ------- 1 7.0 1.0 3 17
+ 1.438424 3 0 ack 40 ------- 1 7.0 1.0 3 17
- 1.438424 3 0 ack 40 ------- 1 7.0 1.0 3 17
+ 1.44938 8 9 ack 40 ------- 2 8.0 2.0 3 22
- 1.44938 8 9 ack 40 ------- 2 8.0 2.0 3 22
d 1.449384 7 9 ack 40 ------- 2 8.0 2.0 3 22
d 1.449384 6 9 ack 40 ------- 2 8.0 2.0 3 22
d 1.449384 5 9 ack 40 ------- 2 8.0 2.0 3 22
d 1.449384 4 9 ack 40 ------- 2 8.0 2.0 3 22
r 1.450744 9 3 ack 40 ------- 1 7.0 1.0 4 18
+ 1.450744 3 0 ack 40 ------- 1 7.0 1.0 4 18
- 1.450744 3 0 ack 40 ------- 1 7.0 1.0 4 18
+ 1.46138 8 9 ack 40 ------- 2 8.0 2.0 4 23
- 1.46138 8 9 ack 40 ------- 2 8.0 2.0 4 23
d 1.461384 7 9 ack 40 ------- 2 8.0 2.0 4 23
d 1.461384 6 9 ack 40 ------- 2 8.0 2.0 4 23
d 1.461384 5 9 ack 40 ------- 2 8.0 2.0 4 23
d 1.461384 4 9 ack 40 ------- 2 8.0 2.0 4 23
r 1.463064 9 3 ack 40 ------- 1 7.0 1.0 5 19
+ 1.463064 3 0 ack 40 ------- 1 7.0 1.0 5 19
- 1.463064 3 0 ack 40 ------- 1 7.0 1.0 5 19
r 1.475384 9 3 ack 40 ------- 1 7.0 1.0 6 20
+ 1.475384 3 0 ack 40 ------- 1 7.0 1.0 6 20
- 1.475384 3 0 ack 40 ------- 1 7.0 1.0 6 20
r 1.487384 9 3 ack 40 ------- 2 8.0 2.0 2 21
+ 1.487384 3 0 ack 40 ------- 2 8.0 2.0 2 21
- 1.487384 3 0 ack 40 ------- 2 8.0 2.0 2 21
r 1.488744 3 0 ack 40 ------- 1 7.0 1.0 3 17
+ 1.488744 0 1 ack 40 ------- 1 7.0 1.0 3 17
- 1.488744 0 1 ack 40 ------- 1 7.0 1.0 3 17
r 1.499384 9 3 ack 40 ------- 2 8.0 2.0 3 22
+ 1.499384 3 0 ack 40 ------- 2 8.0 2.0 3 22
- 1.499384 3 0 ack 40 ------- 2 8.0 2.0 3 22
r 1.501064 3 0 ack 40 ------- 1 7.0 1.0 4 18
+ 1.501064 0 1 ack 40 ------- 1 7.0 1.0 4 18
- 1.501064 0 1 ack 40 ------- 1 7.0 1.0 4 18
r 1.511384 9 3 ack 40 ------- 2 8.0 2.0 4 23
+ 1.511384 3 0 ack 40 ------- 2 8.0 2.0 4 23
- 1.511384 3 0 ack 40 ------- 2 8.0 2.0 4 23
r 1.513384 3 0 ack 40 ------- 1 7.0 1.0 5 19
+ 1.513384 0 1 ack 40 ------- 1 7.0 1.0 5 19
- 1.513384 0 1 ack 40 ------- 1 7.0 1.0 5 19
r 1.525704 3 0 ack 40 ------- 1 7.0 1.0 6 20
+ 1.525704 0 1 ack 40 ------- 1 7.0 1.0 6 20
- 1.525704 0 1 ack 40 ------- 1 7.0 1.0 6 20
r 1.537704 3 0 ack 40 ------- 2 8.0 2.0 2 21
+ 1.537704 0 2 ack 40 ------- 2 8.0 2.0 2 21
- 1.537704 0 2 ack 40 ------- 2 8.0 2.0 2 21
r 1.538904 0 1 ack 40 ------- 1 7.0 1.0 3 17
+ 1.538904 1 0 tcp 1540 ------- 1 1.0 7.0 7 24
- 1.538904 1 0 tcp 1540 ------- 1 1.0 7.0 7 24
+ 1.538904 1 0 tcp 1540 ------- 1 1.0 7.0 8 25
- 1.545064 1 0 tcp 1540 ------- 1 1.0 7.0 8 25
r 1.549704 3 0 ack 40 ------- 2 8.0 2.0 3 22
+ 1.549704 0 2 ack 40 ------- 2 8.0 2.0 3 22
- 1.549704 0 2 ack 40 ------- 2 8.0 2.0 3 22
r 1.551224 0 1 ack 40 ------- 1 7.0 1.0 4 18
+ 1.551224 1 0 tcp 1540 ------- 1 1.0 7.0 9 26
- 1.551224 1 0 tcp 1540 ------- 1 1.0 7.0 9 26
+ 1.551224 1 0 tcp 1540 ------- 1 1.0 7.0 10 27
- 1.557384 1 0 tcp 1540 ------- 1 1.0 7.0 10 27
r 1.561704 3 0 ack 40 ------- 2 8.0 2.0 4 23
+ 1.561704 0 2 ack 40 ------- 2 8.0 2.0 4 23
- 1.561704 0 2 ack 40 ------- 2 8.0 2.0 4 23
r 1.563544 0 1 ack 40 ------- 1 7.0 1.0 5 19
+ 1.563544 1 0 tcp 1540 ------- 1 1.0 7.0 11 28
- 1.563544 1 0 tcp 1540 ------- 1 1.0 7.0 11 28
+ 1.563544 1 0 tcp 1540 ------- 1 1.0 7.0 12 29
- 1.569704 1 0 tcp 1540 ------- 1 1.0 7.0 12 29
r 1.575864 0 1 ack 40 ------- 1 7.0 1.0 6 20
+ 1.575864 1 0 tcp 1540 ------- 1 1.0 7.0 13 30
- 1.575864 1 0 tcp 1540 ------- 1 1.0 7.0 13 30
+ 1.575864 1 0 tcp 1540 ------- 1 1.0 7.0 14 31
- 1.582024 1 0 tcp 1540 ------- 1 1.0 7.0 14 31
r 1.587864 0 2 ack 40 ------- 2 8.0 2.0 2 21
+ 1.587864 2 0 tcp 1500 ------- 2 2.0 8.0 5 32
- 1.587864 2 0 tcp 1500 ------- 2 2.0 8.0 5 32
r 1.595064 1 0 tcp 1540 ------- 1 1.0 7.0 7 24
+ 1.595064 0 3 tcp 1540 ------- 1 1.0 7.0 7 24
- 1.595064 0 3 tcp 1540 ------- 1 1.0 7.0 7 24
r 1.599864 0 2 ack 40 ------- 2 8.0 2.0 3 22
+ 1.599864 2 0 tcp 1500 ------- 2 2.0 8.0 6 33
- 1.599864 2 0 tcp 1500 ------- 2 2.0 8.0 6 33
r 1.601224 1 0 tcp 1540 ------- 1 1.0 7.0 8 25
+ 1.601224 0 3 tcp 1540 ------- 1 1.0 7.0 8 25
r 1.607384 1 0 tcp 1540 ------- 1 1.0 7.0 9 26
+ 1.607384 0 3 tcp 1540 ------- 1 1.0 7.0 9 26
- 1.607384 0 3 tcp 1540 ------- 1 1.0 7.0 8 25
r 1.611864 0 2 ack 40 ------- 2 8.0 2.0 4 23
+ 1.611864 2 0 tcp 1500 ------- 2 2.0 8.0 7 34
- 1.611864 2 0 tcp 1500 ------- 2 2.0 8.0 7 34
r 1.613544 1 0 tcp 1540 ------- 1 1.0 7.0 10 27
+ 1.613544 0 3 tcp 1540 ------- 1 1.0 7.0 10 27
r 1.619704 1 0 tcp 1540 ------- 1 1.0 7.0 11 28
+ 1.619704 0 3 tcp 1540 ------- 1 1.0 7.0 11 28
- 1.619704 0 3 tcp 1540 ------- 1 1.0 7.0 9 26
r 1.625864 1 0 tcp 1540 ------- 1 1.0 7.0 12 29
+ 1.625864 0 3 tcp 1540 ------- 1 1.0 7.0 12 29
r 1.632024 1 0 tcp 1540 ------- 1 1.0 7.0 13 30
+ 1.632024 0 3 tcp 1540 ------- 1 1.0 7.0 13 30
- 1.632024 0 3 tcp 1540 ------- 1 1.0 7.0 10 27
r 1.638184 1 0 tcp 1540 ------- 1 1.0 7.0 14 31
+ 1.638184 0 3 tcp 1540 ------- 1 1.0 7.0 14 31
r 1.643864 2 0 tcp 1500 ------- 2 2.0 8.0 5 32
+ 1.643864 0 3 tcp 1500 ------- 2 2.0 8.0 5 32
- 1.644344 0 3 tcp 1540 ------- 1 1.0 7.0 11 28
r 1.655864 2 0 tcp 1500 ------- 2 2.0 8.0 6 33
+ 1.655864 0 3 tcp 1500 ------- 2 2.0 8.0 6 33
- 1.656664 0 3 tcp 1540 ------- 1 1.0 7.0 12 29
r 1.657384 0 3 tcp 1540 ------- 1 1.0 7.0 7 24
h 1.657384 3 9 tcp 1540 ------- 1 1.0 7.0 7 24
r 1.667864 2 0 tcp 1500 ------- 2 2.0 8.0 7 34
+ 1.667864 0 3 tcp 1500 ------- 2 2.0 8.0 7 34
- 1.668984 0 3 tcp 1540 ------- 1 1.0 7.0 13 30
r 1.669704 0 3 tcp 1540 ------- 1 1.0 7.0 8 25
h 1.669704 3 9 tcp 1540 ------- 1 1.0 7.0 8 25
- 1.681304 0 3 tcp 1540 ------- 1 1.0 7.0 14 31
r 1.682024 0 3 tcp 1540 ------- 1 1.0 7.0 9 26
h 1.682024 3 9 tcp 1540 ------- 1 1.0 7.0 9 26
- 1.693624 0 3 tcp 1500 ------- 2 2.0 8.0 5 32
r 1.694344 0 3 tcp 1540 ------- 1 1.0 7.0 10 27
h 1.694344 3 9 tcp 1540 ------- 1 1.0 7.0 10 27
- 1.705624 0 3 tcp 1500 ------- 2 2.0 8.0 6 33
r 1.706664 0 3 tcp 1540 ------- 1 1.0 7.0 11 28
h 1.706664 3 9 tcp 1540 ------- 1 1.0 7.0 11 28
+ 1.707384 3 9 tcp 1540 ------- 1 1.0 7.0 7 24
- 1.707384 3 9 tcp 1540 ------- 1 1.0 7.0 7 24
d 1.707388 8 9 tcp 1540 ------- 1 1.0 7.0 7 24
d 1.707388 6 9 tcp 1540 ------- 1 1.0 7.0 7 24
d 1.707388 5 9 tcp 1540 ------- 1 1.0 7.0 7 24
d 1.707388 4 9 tcp 1540 ------- 1 1.0 7.0 7 24
- 1.717624 0 3 tcp 1500 ------- 2 2.0 8.0 7 34
r 1.718984 0 3 tcp 1540 ------- 1 1.0 7.0 12 29
h 1.718984 3 9 tcp 1540 ------- 1 1.0 7.0 12 29
+ 1.719704 3 9 tcp 1540 ------- 1 1.0 7.0 8 25
- 1.719704 3 9 tcp 1540 ------- 1 1.0 7.0 8 25
d 1.719708 8 9 tcp 1540 ------- 1 1.0 7.0 8 25
d 1.719708 6 9 tcp 1540 ------- 1 1.0 7.0 8 25
d 1.719708 5 9 tcp 1540 ------- 1 1.0 7.0 8 25
d 1.719708 4 9 tcp 1540 ------- 1 1.0 7.0 8 25
r 1.731304 0 3 tcp 1540 ------- 1 1.0 7.0 13 30
h 1.731304 3 9 tcp 1540 ------- 1 1.0 7.0 13 30
+ 1.732024 3 9 tcp 1540 ------- 1 1.0 7.0 9 26
- 1.732024 3 9 tcp 1540 ------- 1 1.0 7.0 9 26
d 1.732028 8 9 tcp 1540 ------- 1 1.0 7.0 9 26
d 1.732028 6 9 tcp 1540 ------- 1 1.0 7.0 9 26
d 1.732028 5 9 tcp 1540 ------- 1 1.0 7.0 9 26
d 1.732028 4 9 tcp 1540 ------- 1 1.0 7.0 9 26
r 1.743624 0 3 tcp 1540 ------- 1 1.0 7.0 14 31
h 1.743624 3 9 tcp 1540 ------- 1 1.0 7.0 14 31
+ 1.744344 3 9 tcp 1540 ------- 1 1.0 7.0 10 27
- 1.744344 3 9 tcp 1540 ------- 1 1.0 7.0 10 27
d 1.744348 8 9 tcp 1540 ------- 1 1.0 7.0 10 27
d 1.744348 6 9 tcp 1540 ------- 1 1.0 7.0 10 27
d 1.744348 5 9 tcp 1540 ------- 1 1.0 7.0 10 27
d 1.744348 4 9 tcp 1540 ------- 1 1.0 7.0 10 27
r 1.755624 0 3 tcp 1500 ------- 2 2.0 8.0 5 32
h 1.755624 3 9 tcp 1500 ------- 2 2.0 8.0 5 32
+ 1.756664 3 9 tcp 1540 ------- 1 1.0 7.0 11 28
- 1.756664 3 9 tcp 1540 ------- 1 1.0 7.0 11 28
d 1.756668 8 9 tcp 1540 ------- 1 1.0 7.0 11 28
d 1.756668 6 9 tcp 1540 ------- 1 1.0 7.0 11 28
d 1.756668 5 9 tcp 1540 ------- 1 1.0 7.0 11 28
d 1.756668 4 9 tcp 1540 ------- 1 1.0 7.0 11 28
r 1.757388 9 7 tcp 1540 ------- 1 1.0 7.0 7 24
h 1.757388 7 9 ack 40 ------- 1 7.0 1.0 7 35
r 1.767624 0 3 tcp 1500 ------- 2 2.0 8.0 6 33
h 1.767624 3 9 tcp 1500 ------- 2 2.0 8.0 6 33
+ 1.768984 3 9 tcp 1540 ------- 1 1.0 7.0 12 29
- 1.768984 3 9 tcp 1540 ------- 1 1.0 7.0 12 29
d 1.768988 8 9 tcp 1540 ------- 1 1.0 7.0 12 29
d 1.768988 6 9 tcp 1540 ------- 1 1.0 7.0 12 29
d 1.768988 5 9 tcp 1540 ------- 1 1.0 7.0 12 29
d 1.768988 4 9 tcp 1540 ------- 1 1.0 7.0 12 29
r 1.769708 9 7 tcp 1540 ------- 1 1.0 7.0 8 25
h 1.769708 7 9 ack 40 ------- 1 7.0 1.0 8 36
r 1.779624 0 3 tcp 1500 ------- 2 2.0 8.0 7 34
h 1.779624 3 9 tcp 1500 ------- 2 2.0 8.0 7 34
+ 1.781304 3 9 tcp 1540 ------- 1 1.0 7.0 13 30
- 1.781304 3 9 tcp 1540 ------- 1 1.0 7.0 13 30
d 1.781308 8 9 tcp 1540 ------- 1 1.0 7.0 13 30
d 1.781308 6 9 tcp 1540 ------- 1 1.0 7.0 13 30
d 1.781308 5 9 tcp 1540 ------- 1 1.0 7.0 13 30
d 1.781308 4 9 tcp 1540 ------- 1 1.0 7.0 13 30
r 1.782028 9 7 tcp 1540 ------- 1 1.0 7.0 9 26
h 1.782028 7 9 ack 40 ------- 1 7.0 1.0 9 37
+ 1.793624 3 9 tcp 1540 ------- 1 1.0 7.0 14 31
- 1.793624 3 9 tcp 1540 ------- 1 1.0 7.0 14 31
d 1.793628 8 9 tcp 1540 ------- 1 1.0 7.0 14 31
d 1.793628 6 9 tcp 1540 ------- 1 1.0 7.0 14 31
d 1.793628 5 9 tcp 1540 ------- 1 1.0 7.0 14 31
d 1.793628 4 9 tcp 1540 ------- 1 1.0 7.0 14 31
r 1.794348 9 7 tcp 1540 ------- 1 1.0 7.0 10 27
h 1.794348 7 9 ack 40 ------- 1 7.0 1.0 10 38
+ 1.805624 3 9 tcp 1500 ------- 2 2.0 8.0 5 32
- 1.805624 3 9 tcp 1500 ------- 2 2.0 8.0 5 32
d 1.805628 7 9 tcp 1500 ------- 2 2.0 8.0 5 32
d 1.805628 6 9 tcp 1500 ------- 2 2.0 8.0 5 32
d 1.805628 5 9 tcp 1500 ------- 2 2.0 8.0 5 32
d 1.805628 4 9 tcp 1500 ------- 2 2.0 8.0 5 32
r 1.806668 9 7 tcp 1540 ------- 1 1.0 7.0 11 28
h 1.806668 7 9 ack 40 ------- 1 7.0 1.0 11 39
+ 1.807388 7 9 ack 40 ------- 1 7.0 1.0 7 35
- 1.807388 7 9 ack 40 ------- 1 7.0 1.0 7 35
d 1.807392 8 9 ack 40 ------- 1 7.0 1.0 7 35
d 1.807392 6 9 ack 40 ------- 1 7.0 1.0 7 35
d 1.807392 5 9 ack 40 ------- 1 7.0 1.0 7 35
d 1.807392 4 9 ack 40 ------- 1 7.0 1.0 7 35
+ 1.817624 3 9 tcp 1500 ------- 2 2.0 8.0 6 33
- 1.817624 3 9 tcp 1500 ------- 2 2.0 8.0 6 33
d 1.817628 7 9 tcp 1500 ------- 2 2.0 8.0 6 33
d 1.817628 6 9 tcp 1500 ------- 2 2.0 8.0 6 33
d 1.817628 5 9 tcp 1500 ------- 2 2.0 8.0 6 33
d 1.817628 4 9 tcp 1500 ------- 2 2.0 8.0 6 33
r 1.818988 9 7 tcp 1540 ------- 1 1.0 7.0 12 29
h 1.818988 7 9 ack 40 ------- 1 7.0 1.0 12 40
+ 1.819708 7 9 ack 40 ------- 1 7.0 1.0 8 36
- 1.819708 7 9 ack 40 ------- 1 7.0 1.0 8 36
d 1.819712 8 9 ack 40 ------- 1 7.0 1.0 8 36
d 1.819712 6 9 ack 40 ------- 1 7.0 1.0 8 36
d 1.819712 5 9 ack 40 ------- 1 7.0 1.0 8 36
d 1.819712 4 9 ack 40 ------- 1 7.0 1.0 8 36
+ 1.829624 3 9 tcp 1500 ------- 2 2.0 8.0 7 34
- 1.829624 3 9 tcp 1500 ------- 2 2.0 8.0 7 34
d 1.829628 7 9 tcp 1500 ------- 2 2.0 8.0 7 34
d 1.829628 6 9 tcp 1500 ------- 2 2.0 8.0 7 34
d 1.829628 5 9 tcp 1500 ------- 2 2.0 8.0 7 34
d 1.829628 4 9 tcp 1500 ------- 2 2.0 8.0 7 34
r 1.831308 9 7 tcp 1540 ------- 1 1.0 7.0 13 30
h 1.831308 7 9 ack 40 ------- 1 7.0 1.0 13 41
+ 1.832028 7 9 ack 40 ------- 1 7.0 1.0 9 37
- 1.832028 7 9 ack 40 ------- 1 7.0 1.0 9 37
d 1.832032 8 9 ack 40 ------- 1 7.0 1.0 9 37
d 1.832032 6 9 ack 40 ------- 1 7.0 1.0 9 37
d 1.832032 5 9 ack 40 ------- 1 7.0 1.0 9 37
d 1.832032 4 9 ack 40 ------- 1 7.0 1.0 9 37
r 1.843628 9 7 tcp 1540 ------- 1 1.0 7.0 14 31
h 1.843628 7 9 ack 40 ------- 1 7.0 1.0 14 42
+ 1.844348 7 9 ack 40 ------- 1 7.0 1.0 10 38
- 1.844348 7 9 ack 40 ------- 1 7.0 1.0 10 38
d 1.844352 8 9 ack 40 ------- 1 7.0 1.0 10 38
d 1.844352 6 9 ack 40 ------- 1 7.0 1.0 10 38
d 1.844352 5 9 ack 40 ------- 1 7.0 1.0 10 38
d 1.844352 4 9 ack 40 ------- 1 7.0 1.0 10 38
r 1.855628 9 8 tcp 1500 ------- 2 2.0 8.0 5 32
h 1.855628 8 9 ack 40 ------- 2 8.0 2.0 5 43
+ 1.856668 7 9 ack 40 ------- 1 7.0 1.0 11 39
- 1.856668 7 9 ack 40 ------- 1 7.0 1.0 11 39
d 1.856672 8 9 ack 40 ------- 1 7.0 1.0 11 39
d 1.856672 6 9 ack 40 ------- 1 7.0 1.0 11 39
d 1.856672 5 9 ack 40 ------- 1 7.0 1.0 11 39
d 1.856672 4 9 ack 40 ------- 1 7.0 1.0 11 39
r 1.857392 9 3 ack 40 ------- 1 7.0 1.0 7 35
+ 1.857392 3 0 ack 40 ------- 1 7.0 1.0 7 35
- 1.857392 3 0 ack 40 ------- 1 7.0 1.0 7 35
r 1.867628 9 8 tcp 1500 ------- 2 2.0 8.0 6 33
h 1.867628 8 9 ack 40 ------- 2 8.0 2.0 6 44
+ 1.868988 7 9 ack 40 ------- 1 7.0 1.0 12 40
- 1.868988 7 9 ack 40 ------- 1 7.0 1.0 12 40
d 1.868992 8 9 ack 40 ------- 1 7.0 1.0 12 40
d 1.868992 6 9 ack 40 ------- 1 7.0 1.0 12 40
d 1.868992 5 9 ack 40 ------- 1 7.0 1.0 12 40
d 1.868992 4 9 ack 40 ------- 1 7.0 1.0 12 40
r 1.869712 9 3 ack 40 ------- 1 7.0 1.0 8 36
+ 1.869712 3 0 ack 40 ------- 1 7.0 1.0 8 36
- 1.869712 3 0 ack 40 ------- 1 7.0 1.0 8 36
r 1.879628 9 8 tcp 1500 ------- 2 2.0 8.0 7 34
h 1.879628 8 9 ack 40 ------- 2 8.0 2.0 7 45
+ 1.881308 7 9 ack 40 ------- 1 7.0 1.0 13 41
- 1.881308 7 9 ack 40 ------- 1 7.0 1.0 13 41
d 1.881312 8 9 ack 40 ------- 1 7.0 1.0 13 41
d 1.881312 6 9 ack 40 ------- 1 7.0 1.0 13 41
d 1.881312 5 9 ack 40 ------- 1 7.0 1.0 13 41
d 1.881312 4 9 ack 40 ------- 1 7.0 1.0 13 41
r 1.882032 9 3 ack 40 ------- 1 7.0 1.0 9 37
+ 1.882032 3 0 ack 40 ------- 1 7.0 1.0 9 37
- 1.882032 3 0 ack 40 ------- 1 7.0 1.0 9 37
+ 1.893628 7 9 ack 40 ------- 1 7.0 1.0 14 42
- 1.893628 7 9 ack 40 ------- 1 7.0 1.0 14 42
d 1.893632 8 9 ack 40 ------- 1 7.0 1.0 14 42
d 1.893632 6 9 ack 40 ------- 1 7.0 1.0 14 42
d 1.893632 5 9 ack 40 ------- 1 7.0 1.0 14 42
d 1.893632 4 9 ack 40 ------- 1 7.0 1.0 14 42
r 1.894352 9 3 ack 40 ------- 1 7.0 1.0 10 38
+ 1.894352 3 0 ack 40 ------- 1 7.0 1.0 10 38
- 1.894352 3 0 ack 40 ------- 1 7.0 1.0 10 38
+ 1.905628 8 9 ack 40 ------- 2 8.0 2.0 5 43
- 1.905628 8 9 ack 40 ------- 2 8.0 2.0 5 43
d 1.905632 7 9 ack 40 ------- 2 8.0 2.0 5 43
d 1.905632 6 9 ack 40 ------- 2 8.0 2.0 5 43
d 1.905632 5 9 ack 40 ------- 2 8.0 2.0 5 43
d 1.905632 4 9 ack 40 ------- 2 8.0 2.0 5 43
r 1.906672 9 3 ack 40 ------- 1 7.0 1.0 11 39
+ 1.906672 3 0 ack 40 ------- 1 7.0 1.0 11 39
- 1.906672 3 0 ack 40 ------- 1 7.0 1.0 11 39
r 1.907712 3 0 ack 40 ------- 1 7.0 1.0 7 35
+ 1.907712 0 1 ack 40 ------- 1 7.0 1.0 7 35
- 1.907712 0 1 ack 40 ------- 1 7.0 1.0 7 35
+ 1.917628 8 9 ack 40 ------- 2 8.0 2.0 6 44
- 1.917628 8 9 ack 40 ------- 2 8.0 2.0 6 44
d 1.917632 7 9 ack 40 ------- 2 8.0 2.0 6 44
d 1.917632 6 9 ack 40 ------- 2 8.0 2.0 6 44
d 1.917632 5 9 ack 40 ------- 2 8.0 2.0 6 44
d 1.917632 4 9 ack 40 ------- 2 8.0 2.0 6 44
r 1.918992 9 3 ack 40 ------- 1 7.0 1.0 12 40
+ 1.918992 3 0 ack 40 ------- 1 7.0 1.0 12 40
- 1.918992 3 0 ack 40 ------- 1 7.0 1.0 12 40
r 1.920032 3 0 ack 40 ------- 1 7.0 1.0 8 36
+ 1.920032 0 1 ack 40 ------- 1 7.0 1.0 8 36
- 1.920032 0 1 ack 40 ------- 1 7.0 1.0 8 36
+ 1.929628 8 9 ack 40 ------- 2 8.0 2.0 7 45
- 1.929628 8 9 ack 40 ------- 2 8.0 2.0 7 45
d 1.929632 7 9 ack 40 ------- 2 8.0 2.0 7 45
d 1.929632 6 9 ack 40 ------- 2 8.0 2.0 7 45
d 1.929632 5 9 ack 40 ------- 2 8.0 2.0 7 45
d 1.929632 4 9 ack 40 ------- 2 8.0 2.0 7 45
r 1.931312 9 3 ack 40 ------- 1 7.0 1.0 13 41
+ 1.931312 3 0 ack 40 ------- 1 7.0 1.0 13 41
- 1.931312 3 0 ack 40 ------- 1 7.0 1.0 13 41
r 1.932352 3 0 ack 40 ------- 1 7.0 1.0 9 37
+ 1.932352 0 1 ack 40 ------- 1 7.0 1.0 9 37
- 1.932352 0 1 ack 40 ------- 1 7.0 1.0 9 37
r 1.943632 9 3 ack 40 ------- 1 7.0 1.0 14 42
+ 1.943632 3 0 ack 40 ------- 1 7.0 1.0 14 42
- 1.943632 3 0 ack 40 ------- 1 7.0 1.0 14 42
r 1.944672 3 0 ack 40 ------- 1 7.0 1.0 10 38
+ 1.944672 0 1 ack 40 ------- 1 7.0 1.0 10 38
- 1.944672 0 1 ack 40 ------- 1 7.0 1.0 10 38
r 1.955632 9 3 ack 40 ------- 2 8.0 2.0 5 43
+ 1.955632 3 0 ack 40 ------- 2 8.0 2.0 5 43
- 1.955632 3 0 ack 40 ------- 2 8.0 2.0 5 43
r 1.956992 3 0 ack 40 ------- 1 7.0 1.0 11 39
+ 1.956992 0 1 ack 40 ------- 1 7.0 1.0 11 39
- 1.956992 0 1 ack 40 ------- 1 7.0 1.0 11 39
r 1.957872 0 1 ack 40 ------- 1 7.0 1.0 7 35
+ 1.957872 1 0 tcp 1540 ------- 1 1.0 7.0 15 46
- 1.957872 1 0 tcp 1540 ------- 1 1.0 7.0 15 46
+ 1.957872 1 0 tcp 1540 ------- 1 1.0 7.0 16 47
- 1.964032 1 0 tcp 1540 ------- 1 1.0 7.0 16 47
r 1.967632 9 3 ack 40 ------- 2 8.0 2.0 6 44
+ 1.967632 3 0 ack 40 ------- 2 8.0 2.0 6 44
- 1.967632 3 0 ack 40 ------- 2 8.0 2.0 6 44
r 1.969312 3 0 ack 40 ------- 1 7.0 1.0 12 40
+ 1.969312 0 1 ack 40 ------- 1 7.0 1.0 12 40
- 1.969312 0 1 ack 40 ------- 1 7.0 1.0 12 40
r 1.970192 0 1 ack 40 ------- 1 7.0 1.0 8 36
+ 1.970192 1 0 tcp 1540 ------- 1 1.0 7.0 17 48
- 1.970192 1 0 tcp 1540 ------- 1 1.0 7.0 17 48
+ 1.970192 1 0 tcp 1540 ------- 1 1.0 7.0 18 49
- 1.976352 1 0 tcp 1540 ------- 1 1.0 7.0 18 49
r 1.979632 9 3 ack 40 ------- 2 8.0 2.0 7 45
+ 1.979632 3 0 ack 40 ------- 2 8.0 2.0 7 45
- 1.979632 3 0 ack 40 ------- 2 8.0 2.0 7 45
r 1.981632 3 0 ack 40 ------- 1 7.0 1.0 13 41
+ 1.981632 0 1 ack 40 ------- 1 7.0 1.0 13 41
- 1.981632 0 1 ack 40 ------- 1 7.0 1.0 13 41
r 1.982512 0 1 ack 40 ------- 1 7.0 1.0 9 37
+ 1.982512 1 0 tcp 1540 ------- 1 1.0 7.0 19 50
- 1.982512 1 0 tcp 1540 ------- 1 1.0 7.0 19 50
+ 1.982512 1 0 tcp 1540 ------- 1 1.0 7.0 20 51
- 1.988672 1 0 tcp 1540 ------- 1 1.0 7.0 20 51
r 1.993952 3 0 ack 40 ------- 1 7.0 1.0 14 42
+ 1.993952 0 1 ack 40 ------- 1 7.0 1.0 14 42
- 1.993952 0 1 ack 40 ------- 1 7.0 1.0 14 42
r 1.994832 0 1 ack 40 ------- 1 7.0 1.0 10 38
+ 1.994832 1 0 tcp 1540 ------- 1 1.0 7.0 21 52
- 1.994832 1 0 tcp 1540 ------- 1 1.0 7.0 21 52
+ 1.994832 1 0 tcp 1540 ------- 1 1.0 7.0 22 53
- 2.000992 1 0 tcp 1540 ------- 1 1.0 7.0 22 53
r 2.005952 3 0 ack 40 ------- 2 8.0 2.0 5 43
+ 2.005952 0 2 ack 40 ------- 2 8.0 2.0 5 43
- 2.005952 0 2 ack 40 ------- 2 8.0 2.0 5 43
r 2.007152 0 1 ack 40 ------- 1 7.0 1.0 11 39
+ 2.007152 1 0 tcp 1540 ------- 1 1.0 7.0 23 54
+ 2.007152 1 0 tcp 1540 ------- 1 1.0 7.0 24 55
- 2.007152 1 0 tcp 1540 ------- 1 1.0 7.0 23 54
- 2.013312 1 0 tcp 1540 ------- 1 1.0 7.0 24 55
r 2.014032 1 0 tcp 1540 ------- 1 1.0 7.0 15 46