+ 0.2 1 0 ping 64 ------- 0 1.0 4.0 -1 0
- 0.2 1 0 ping 64 ------- 0 1.0 4.0 -1 0
r 0.250512 1 0 ping 64 ------- 0 1.0 4.0 -1 0
+ 0.250512 0 4 ping 64 ------- 0 1.0 4.0 -1 0
- 0.250512 0 4 ping 64 ------- 0 1.0 4.0 -1 0
r 0.301024 0 4 ping 64 ------- 0 1.0 4.0 -1 0
+ 0.301024 4 0 ping 64 ------- 0 4.0 1.0 -1 1
- 0.301024 4 0 ping 64 ------- 0 4.0 1.0 -1 1
r 0.351536 4 0 ping 64 ------- 0 4.0 1.0 -1 1
+ 0.351536 0 1 ping 64 ------- 0 4.0 1.0 -1 1
- 0.351536 0 1 ping 64 ------- 0 4.0 1.0 -1 1
+ 0.4 2 0 ping 64 ------- 0 2.0 5.0 -1 2
- 0.4 2 0 ping 64 ------- 0 2.0 5.0 -1 2
r 0.402048 0 1 ping 64 ------- 0 4.0 1.0 -1 1
r 0.450512 2 0 ping 64 ------- 0 2.0 5.0 -1 2
+ 0.450512 0 5 ping 64 ------- 0 2.0 5.0 -1 2
- 0.450512 0 5 ping 64 ------- 0 2.0 5.0 -1 2
r 0.501024 0 5 ping 64 ------- 0 2.0 5.0 -1 2
+ 0.501024 5 0 ping 64 ------- 0 5.0 2.0 -1 3
- 0.501024 5 0 ping 64 ------- 0 5.0 2.0 -1 3
r 0.551536 5 0 ping 64 ------- 0 5.0 2.0 -1 3
+ 0.551536 0 2 ping 64 ------- 0 5.0 2.0 -1 3
- 0.551536 0 2 ping 64 ------- 0 5.0 2.0 -1 3
+ 0.6 3 0 ping 64 ------- 0 3.0 6.0 -1 4
- 0.6 3 0 ping 64 ------- 0 3.0 6.0 -1 4
r 0.602048 0 2 ping 64 ------- 0 5.0 2.0 -1 3
r 0.650512 3 0 ping 64 ------- 0 3.0 6.0 -1 4
+ 0.650512 0 6 ping 64 ------- 0 3.0 6.0 -1 4
d 0.650512 0 6 ping 64 ------- 0 3.0 6.0 -1 4
+ 1 4 0 ping 64 ------- 0 4.0 1.0 -1 5
- 1 4 0 ping 64 ------- 0 4.0 1.0 -1 5
r 1.050512 4 0 ping 64 ------- 0 4.0 1.0 -1 5
+ 1.050512 0 1 ping 64 ------- 0 4.0 1.0 -1 5
- 1.050512 0 1 ping 64 ------- 0 4.0 1.0 -1 5
r 1.101024 0 1 ping 64 ------- 0 4.0 1.0 -1 5
+ 1.101024 1 0 ping 64 ------- 0 1.0 4.0 -1 6
- 1.101024 1 0 ping 64 ------- 0 1.0 4.0 -1 6
r 1.151536 1 0 ping 64 ------- 0 1.0 4.0 -1 6
+ 1.151536 0 4 ping 64 ------- 0 1.0 4.0 -1 6
- 1.151536 0 4 ping 64 ------- 0 1.0 4.0 -1 6
+ 1.2 5 0 ping 64 ------- 0 5.0 2.0 -1 7
- 1.2 5 0 ping 64 ------- 0 5.0 2.0 -1 7
r 1.202048 0 4 ping 64 ------- 0 1.0 4.0 -1 6
r 1.250512 5 0 ping 64 ------- 0 5.0 2.0 -1 7
+ 1.250512 0 2 ping 64 ------- 0 5.0 2.0 -1 7
- 1.250512 0 2 ping 64 ------- 0 5.0 2.0 -1 7
r 1.301024 0 2 ping 64 ------- 0 5.0 2.0 -1 7
+ 1.301024 2 0 ping 64 ------- 0 2.0 5.0 -1 8
- 1.301024 2 0 ping 64 ------- 0 2.0 5.0 -1 8
r 1.351536 2 0 ping 64 ------- 0 2.0 5.0 -1 8
+ 1.351536 0 5 ping 64 ------- 0 2.0 5.0 -1 8
- 1.351536 0 5 ping 64 ------- 0 2.0 5.0 -1 8
+ 1.4 6 0 ping 64 ------- 0 6.0 3.0 -1 9
- 1.4 6 0 ping 64 ------- 0 6.0 3.0 -1 9
r 1.402048 0 5 ping 64 ------- 0 2.0 5.0 -1 8
r 1.450512 6 0 ping 64 ------- 0 6.0 3.0 -1 9
+ 1.450512 0 3 ping 64 ------- 0 6.0 3.0 -1 9
- 1.450512 0 3 ping 64 ------- 0 6.0 3.0 -1 9
r 1.501024 0 3 ping 64 ------- 0 6.0 3.0 -1 9
+ 1.501024 3 0 ping 64 ------- 0 3.0 6.0 -1 10
- 1.501024 3 0 ping 64 ------- 0 3.0 6.0 -1 10
r 1.551536 3 0 ping 64 ------- 0 3.0 6.0 -1 10
+ 1.551536 0 6 ping 64 ------- 0 3.0 6.0 -1 10
d 1.551536 0 6 ping 64 ------- 0 3.0 6.0 -1 10
