+ 0.5 0 1 tcp 40 ------- 0 0.0 4.0 0 0
- 0.5 0 1 tcp 40 ------- 0 0.0 4.0 0 0
r 0.510107 0 1 tcp 40 ------- 0 0.0 4.0 0 0
+ 0.510107 1 2 tcp 40 ------- 0 0.0 4.0 0 0
- 0.510107 1 2 tcp 40 ------- 0 0.0 4.0 0 0
r 1.04344 1 2 tcp 40 ------- 0 0.0 4.0 0 0
+ 1.04344 2 3 tcp 40 ------- 0 0.0 4.0 0 0
- 1.04344 2 3 tcp 40 ------- 0 0.0 4.0 0 0
r 1.576773 2 3 tcp 40 ------- 0 0.0 4.0 0 0
+ 1.576773 3 4 tcp 40 ------- 0 0.0 4.0 0 0
- 1.576773 3 4 tcp 40 ------- 0 0.0 4.0 0 0
r 1.62688 3 4 tcp 40 ------- 0 0.0 4.0 0 0
+ 1.62688 4 3 ack 40 ------- 0 4.0 0.0 0 1
- 1.62688 4 3 ack 40 ------- 0 4.0 0.0 0 1
r 1.676987 4 3 ack 40 ------- 0 4.0 0.0 0 1
+ 1.676987 3 2 ack 40 ------- 0 4.0 0.0 0 1
- 1.676987 3 2 ack 40 ------- 0 4.0 0.0 0 1
r 2.21032 3 2 ack 40 ------- 0 4.0 0.0 0 1
+ 2.21032 2 1 ack 40 ------- 0 4.0 0.0 0 1
- 2.21032 2 1 ack 40 ------- 0 4.0 0.0 0 1
r 2.743653 2 1 ack 40 ------- 0 4.0 0.0 0 1
+ 2.743653 1 0 ack 40 ------- 0 4.0 0.0 0 1
- 2.743653 1 0 ack 40 ------- 0 4.0 0.0 0 1
r 2.75376 1 0 ack 40 ------- 0 4.0 0.0 0 1
+ 2.75376 0 1 tcp 1040 ------- 0 0.0 4.0 1 2
- 2.75376 0 1 tcp 1040 ------- 0 0.0 4.0 1 2
+ 2.75376 0 1 tcp 1040 ------- 0 0.0 4.0 2 3
- 2.756533 0 1 tcp 1040 ------- 0 0.0 4.0 2 3
r 2.766533 0 1 tcp 1040 ------- 0 0.0 4.0 1 2
+ 2.766533 1 2 tcp 1040 ------- 0 0.0 4.0 1 2
- 2.766533 1 2 tcp 1040 ------- 0 0.0 4.0 1 2
r 2.769307 0 1 tcp 1040 ------- 0 0.0 4.0 2 3
+ 2.769307 1 2 tcp 1040 ------- 0 0.0 4.0 2 3
- 3.6332 1 2 tcp 1040 ------- 0 0.0 4.0 2 3
r 4.1332 1 2 tcp 1040 ------- 0 0.0 4.0 1 2
+ 4.1332 2 3 tcp 1040 ------- 0 0.0 4.0 1 2
- 4.1332 2 3 tcp 1040 ------- 0 0.0 4.0 1 2
r 4.999867 1 2 tcp 1040 ------- 0 0.0 4.0 2 3
+ 4.999867 2 3 tcp 1040 ------- 0 0.0 4.0 2 3
- 4.999867 2 3 tcp 1040 ------- 0 0.0 4.0 2 3
r 5.499867 2 3 tcp 1040 ------- 0 0.0 4.0 1 2
+ 5.499867 3 4 tcp 1040 ------- 0 0.0 4.0 1 2
- 5.499867 3 4 tcp 1040 ------- 0 0.0 4.0 1 2
r 5.55264 3 4 tcp 1040 ------- 0 0.0 4.0 1 2
+ 5.55264 4 3 ack 40 ------- 0 4.0 0.0 1 4
- 5.55264 4 3 ack 40 ------- 0 4.0 0.0 1 4
r 5.602747 4 3 ack 40 ------- 0 4.0 0.0 1 4
+ 5.602747 3 2 ack 40 ------- 0 4.0 0.0 1 4
- 5.602747 3 2 ack 40 ------- 0 4.0 0.0 1 4
r 6.13608 3 2 ack 40 ------- 0 4.0 0.0 1 4
+ 6.13608 2 1 ack 40 ------- 0 4.0 0.0 1 4
- 6.13608 2 1 ack 40 ------- 0 4.0 0.0 1 4
r 6.366533 2 3 tcp 1040 ------- 0 0.0 4.0 2 3
+ 6.366533 3 4 tcp 1040 ------- 0 0.0 4.0 2 3
- 6.366533 3 4 tcp 1040 ------- 0 0.0 4.0 2 3
r 6.419307 3 4 tcp 1040 ------- 0 0.0 4.0 2 3
+ 6.419307 4 3 ack 40 ------- 0 4.0 0.0 2 5
- 6.419307 4 3 ack 40 ------- 0 4.0 0.0 2 5
r 6.469413 4 3 ack 40 ------- 0 4.0 0.0 2 5
+ 6.469413 3 2 ack 40 ------- 0 4.0 0.0 2 5
- 6.469413 3 2 ack 40 ------- 0 4.0 0.0 2 5
r 6.669413 2 1 ack 40 ------- 0 4.0 0.0 1 4
+ 6.669413 1 0 ack 40 ------- 0 4.0 0.0 1 4
- 6.669413 1 0 ack 40 ------- 0 4.0 0.0 1 4
r 6.67952 1 0 ack 40 ------- 0 4.0 0.0 1 4
+ 6.67952 0 1 tcp 1040 ------- 0 0.0 4.0 3 6
- 6.67952 0 1 tcp 1040 ------- 0 0.0 4.0 3 6
+ 6.67952 0 1 tcp 1040 ------- 0 0.0 4.0 4 7
- 6.682293 0 1 tcp 1040 ------- 0 0.0 4.0 4 7
r 6.692293 0 1 tcp 1040 ------- 0 0.0 4.0 3 6
+ 6.692293 1 2 tcp 1040 ------- 0 0.0 4.0 3 6
- 6.692293 1 2 tcp 1040 ------- 0 0.0 4.0 3 6
r 6.695067 0 1 tcp 1040 ------- 0 0.0 4.0 4 7
+ 6.695067 1 2 tcp 1040 ------- 0 0.0 4.0 4 7
r 7.002747 3 2 ack 40 ------- 0 4.0 0.0 2 5
+ 7.002747 2 1 ack 40 ------- 0 4.0 0.0 2 5
- 7.002747 2 1 ack 40 ------- 0 4.0 0.0 2 5
r 7.53608 2 1 ack 40 ------- 0 4.0 0.0 2 5
+ 7.53608 1 0 ack 40 ------- 0 4.0 0.0 2 5
- 7.53608 1 0 ack 40 ------- 0 4.0 0.0 2 5
r 7.546187 1 0 ack 40 ------- 0 4.0 0.0 2 5
+ 7.546187 0 1 tcp 1040 ------- 0 0.0 4.0 5 8
- 7.546187 0 1 tcp 1040 ------- 0 0.0 4.0 5 8
+ 7.546187 0 1 tcp 1040 ------- 0 0.0 4.0 6 9
- 7.54896 0 1 tcp 1040 ------- 0 0.0 4.0 6 9
- 7.55896 1 2 tcp 1040 ------- 0 0.0 4.0 4 7
r 7.55896 0 1 tcp 1040 ------- 0 0.0 4.0 5 8
+ 7.55896 1 2 tcp 1040 ------- 0 0.0 4.0 5 8
r 7.561733 0 1 tcp 1040 ------- 0 0.0 4.0 6 9
+ 7.561733 1 2 tcp 1040 ------- 0 0.0 4.0 6 9
r 8.05896 1 2 tcp 1040 ------- 0 0.0 4.0 3 6
+ 8.05896 2 3 tcp 1040 ------- 0 0.0 4.0 3 6
- 8.05896 2 3 tcp 1040 ------- 0 0.0 4.0 3 6
- 8.425627 1 2 tcp 1040 ------- 0 0.0 4.0 5 8
r 8.925627 1 2 tcp 1040 ------- 0 0.0 4.0 4 7
+ 8.925627 2 3 tcp 1040 ------- 0 0.0 4.0 4 7
- 8.925627 2 3 tcp 1040 ------- 0 0.0 4.0 4 7
- 9.292293 1 2 tcp 1040 ------- 0 0.0 4.0 6 9
r 9.425627 2 3 tcp 1040 ------- 0 0.0 4.0 3 6
+ 9.425627 3 4 tcp 1040 ------- 0 0.0 4.0 3 6
- 9.425627 3 4 tcp 1040 ------- 0 0.0 4.0 3 6
r 9.4784 3 4 tcp 1040 ------- 0 0.0 4.0 3 6
+ 9.4784 4 3 ack 40 ------- 0 4.0 0.0 3 10
- 9.4784 4 3 ack 40 ------- 0 4.0 0.0 3 10
r 9.528507 4 3 ack 40 ------- 0 4.0 0.0 3 10
+ 9.528507 3 2 ack 40 ------- 0 4.0 0.0 3 10
- 9.528507 3 2 ack 40 ------- 0 4.0 0.0 3 10
r 9.792293 1 2 tcp 1040 ------- 0 0.0 4.0 5 8
+ 9.792293 2 3 tcp 1040 ------- 0 0.0 4.0 5 8
- 9.792293 2 3 tcp 1040 ------- 0 0.0 4.0 5 8
r 10.06184 3 2 ack 40 ------- 0 4.0 0.0 3 10
+ 10.06184 2 1 ack 40 ------- 0 4.0 0.0 3 10
- 10.06184 2 1 ack 40 ------- 0 4.0 0.0 3 10
r 10.292293 2 3 tcp 1040 ------- 0 0.0 4.0 4 7
+ 10.292293 3 4 tcp 1040 ------- 0 0.0 4.0 4 7
- 10.292293 3 4 tcp 1040 ------- 0 0.0 4.0 4 7
r 10.345067 3 4 tcp 1040 ------- 0 0.0 4.0 4 7
+ 10.345067 4 3 ack 40 ------- 0 4.0 0.0 4 11
- 10.345067 4 3 ack 40 ------- 0 4.0 0.0 4 11
r 10.395173 4 3 ack 40 ------- 0 4.0 0.0 4 11
+ 10.395173 3 2 ack 40 ------- 0 4.0 0.0 4 11
- 10.395173 3 2 ack 40 ------- 0 4.0 0.0 4 11
r 10.595173 2 1 ack 40 ------- 0 4.0 0.0 3 10
+ 10.595173 1 0 ack 40 ------- 0 4.0 0.0 3 10
- 10.595173 1 0 ack 40 ------- 0 4.0 0.0 3 10
r 10.60528 1 0 ack 40 ------- 0 4.0 0.0 3 10
+ 10.60528 0 1 tcp 1040 ------- 0 0.0 4.0 7 12
- 10.60528 0 1 tcp 1040 ------- 0 0.0 4.0 7 12
+ 10.60528 0 1 tcp 1040 ------- 0 0.0 4.0 8 13
- 10.608053 0 1 tcp 1040 ------- 0 0.0 4.0 8 13
r 10.618053 0 1 tcp 1040 ------- 0 0.0 4.0 7 12
+ 10.618053 1 2 tcp 1040 ------- 0 0.0 4.0 7 12
- 10.618053 1 2 tcp 1040 ------- 0 0.0 4.0 7 12
r 10.620827 0 1 tcp 1040 ------- 0 0.0 4.0 8 13
+ 10.620827 1 2 tcp 1040 ------- 0 0.0 4.0 8 13
r 10.65896 1 2 tcp 1040 ------- 0 0.0 4.0 6 9
+ 10.65896 2 3 tcp 1040 ------- 0 0.0 4.0 6 9
- 10.65896 2 3 tcp 1040 ------- 0 0.0 4.0 6 9
r 10.928507 3 2 ack 40 ------- 0 4.0 0.0 4 11
+ 10.928507 2 1 ack 40 ------- 0 4.0 0.0 4 11
- 10.928507 2 1 ack 40 ------- 0 4.0 0.0 4 11
r 11.15896 2 3 tcp 1040 ------- 0 0.0 4.0 5 8
+ 11.15896 3 4 tcp 1040 ------- 0 0.0 4.0 5 8
- 11.15896 3 4 tcp 1040 ------- 0 0.0 4.0 5 8
r 11.211733 3 4 tcp 1040 ------- 0 0.0 4.0 5 8
+ 11.211733 4 3 ack 40 ------- 0 4.0 0.0 5 14
- 11.211733 4 3 ack 40 ------- 0 4.0 0.0 5 14
r 11.26184 4 3 ack 40 ------- 0 4.0 0.0 5 14
+ 11.26184 3 2 ack 40 ------- 0 4.0 0.0 5 14
- 11.26184 3 2 ack 40 ------- 0 4.0 0.0 5 14
r 11.46184 2 1 ack 40 ------- 0 4.0 0.0 4 11
+ 11.46184 1 0 ack 40 ------- 0 4.0 0.0 4 11
- 11.46184 1 0 ack 40 ------- 0 4.0 0.0 4 11
r 11.471947 1 0 ack 40 ------- 0 4.0 0.0 4 11
+ 11.471947 0 1 tcp 1040 ------- 0 0.0 4.0 9 15
- 11.471947 0 1 tcp 1040 ------- 0 0.0 4.0 9 15
+ 11.471947 0 1 tcp 1040 ------- 0 0.0 4.0 10 16
- 11.47472 0 1 tcp 1040 ------- 0 0.0 4.0 10 16
- 11.48472 1 2 tcp 1040 ------- 0 0.0 4.0 8 13
r 11.48472 0 1 tcp 1040 ------- 0 0.0 4.0 9 15
+ 11.48472 1 2 tcp 1040 ------- 0 0.0 4.0 9 15
r 11.487493 0 1 tcp 1040 ------- 0 0.0 4.0 10 16
+ 11.487493 1 2 tcp 1040 ------- 0 0.0 4.0 10 16
r 11.795173 3 2 ack 40 ------- 0 4.0 0.0 5 14
+ 11.795173 2 1 ack 40 ------- 0 4.0 0.0 5 14
- 11.795173 2 1 ack 40 ------- 0 4.0 0.0 5 14
r 11.98472 1 2 tcp 1040 ------- 0 0.0 4.0 7 12
+ 11.98472 2 3 tcp 1040 ------- 0 0.0 4.0 7 12
- 11.98472 2 3 tcp 1040 ------- 0 0.0 4.0 7 12
r 12.025627 2 3 tcp 1040 ------- 0 0.0 4.0 6 9
+ 12.025627 3 4 tcp 1040 ------- 0 0.0 4.0 6 9
- 12.025627 3 4 tcp 1040 ------- 0 0.0 4.0 6 9
r 12.0784 3 4 tcp 1040 ------- 0 0.0 4.0 6 9
+ 12.0784 4 3 ack 40 ------- 0 4.0 0.0 6 17
- 12.0784 4 3 ack 40 ------- 0 4.0 0.0 6 17
r 12.128507 4 3 ack 40 ------- 0 4.0 0.0 6 17
+ 12.128507 3 2 ack 40 ------- 0 4.0 0.0 6 17
- 12.128507 3 2 ack 40 ------- 0 4.0 0.0 6 17
r 12.328507 2 1 ack 40 ------- 0 4.0 0.0 5 14
+ 12.328507 1 0 ack 40 ------- 0 4.0 0.0 5 14
- 12.328507 1 0 ack 40 ------- 0 4.0 0.0 5 14
r 12.338613 1 0 ack 40 ------- 0 4.0 0.0 5 14
+ 12.338613 0 1 tcp 1040 ------- 0 0.0 4.0 11 18
- 12.338613 0 1 tcp 1040 ------- 0 0.0 4.0 11 18
+ 12.338613 0 1 tcp 1040 ------- 0 0.0 4.0 12 19
- 12.341387 0 1 tcp 1040 ------- 0 0.0 4.0 12 19
- 12.351387 1 2 tcp 1040 ------- 0 0.0 4.0 9 15
r 12.351387 0 1 tcp 1040 ------- 0 0.0 4.0 11 18
+ 12.351387 1 2 tcp 1040 ------- 0 0.0 4.0 11 18
r 12.35416 0 1 tcp 1040 ------- 0 0.0 4.0 12 19
+ 12.35416 1 2 tcp 1040 ------- 0 0.0 4.0 12 19
r 12.66184 3 2 ack 40 ------- 0 4.0 0.0 6 17
+ 12.66184 2 1 ack 40 ------- 0 4.0 0.0 6 17
- 12.66184 2 1 ack 40 ------- 0 4.0 0.0 6 17
r 12.851387 1 2 tcp 1040 ------- 0 0.0 4.0 8 13
+ 12.851387 2 3 tcp 1040 ------- 0 0.0 4.0 8 13
- 12.851387 2 3 tcp 1040 ------- 0 0.0 4.0 8 13
r 13.195173 2 1 ack 40 ------- 0 4.0 0.0 6 17
+ 13.195173 1 0 ack 40 ------- 0 4.0 0.0 6 17
- 13.195173 1 0 ack 40 ------- 0 4.0 0.0 6 17
r 13.20528 1 0 ack 40 ------- 0 4.0 0.0 6 17
+ 13.20528 0 1 tcp 1040 ------- 0 0.0 4.0 13 20
- 13.20528 0 1 tcp 1040 ------- 0 0.0 4.0 13 20
+ 13.20528 0 1 tcp 1040 ------- 0 0.0 4.0 14 21
- 13.208053 0 1 tcp 1040 ------- 0 0.0 4.0 14 21
- 13.218053 1 2 tcp 1040 ------- 0 0.0 4.0 10 16
r 13.218053 0 1 tcp 1040 ------- 0 0.0 4.0 13 20
+ 13.218053 1 2 tcp 1040 ------- 0 0.0 4.0 13 20
r 13.220827 0 1 tcp 1040 ------- 0 0.0 4.0 14 21
+ 13.220827 1 2 tcp 1040 ------- 0 0.0 4.0 14 21
r 13.351387 2 3 tcp 1040 ------- 0 0.0 4.0 7 12
+ 13.351387 3 4 tcp 1040 ------- 0 0.0 4.0 7 12
- 13.351387 3 4 tcp 1040 ------- 0 0.0 4.0 7 12
r 13.40416 3 4 tcp 1040 ------- 0 0.0 4.0 7 12
+ 13.40416 4 3 ack 40 ------- 0 4.0 0.0 7 22
- 13.40416 4 3 ack 40 ------- 0 4.0 0.0 7 22
r 13.454267 4 3 ack 40 ------- 0 4.0 0.0 7 22
+ 13.454267 3 2 ack 40 ------- 0 4.0 0.0 7 22
- 13.454267 3 2 ack 40 ------- 0 4.0 0.0 7 22
r 13.718053 1 2 tcp 1040 ------- 0 0.0 4.0 9 15
+ 13.718053 2 3 tcp 1040 ------- 0 0.0 4.0 9 15
- 13.718053 2 3 tcp 1040 ------- 0 0.0 4.0 9 15
r 13.9876 3 2 ack 40 ------- 0 4.0 0.0 7 22
+ 13.9876 2 1 ack 40 ------- 0 4.0 0.0 7 22
- 13.9876 2 1 ack 40 ------- 0 4.0 0.0 7 22
- 14.08472 1 2 tcp 1040 ------- 0 0.0 4.0 11 18
r 14.218053 2 3 tcp 1040 ------- 0 0.0 4.0 8 13
+ 14.218053 3 4 tcp 1040 ------- 0 0.0 4.0 8 13
- 14.218053 3 4 tcp 1040 ------- 0 0.0 4.0 8 13
r 14.270827 3 4 tcp 1040 ------- 0 0.0 4.0 8 13
+ 14.270827 4 3 ack 40 ------- 0 4.0 0.0 8 23
- 14.270827 4 3 ack 40 ------- 0 4.0 0.0 8 23
r 14.320933 4 3 ack 40 ------- 0 4.0 0.0 8 23
+ 14.320933 3 2 ack 40 ------- 0 4.0 0.0 8 23
- 14.320933 3 2 ack 40 ------- 0 4.0 0.0 8 23
r 14.520933 2 1 ack 40 ------- 0 4.0 0.0 7 22
+ 14.520933 1 0 ack 40 ------- 0 4.0 0.0 7 22
- 14.520933 1 0 ack 40 ------- 0 4.0 0.0 7 22
r 14.53104 1 0 ack 40 ------- 0 4.0 0.0 7 22
+ 14.53104 0 1 tcp 1040 ------- 0 0.0 4.0 15 24
- 14.53104 0 1 tcp 1040 ------- 0 0.0 4.0 15 24
+ 14.53104 0 1 tcp 1040 ------- 0 0.0 4.0 16 25
- 14.533813 0 1 tcp 1040 ------- 0 0.0 4.0 16 25
r 14.543813 0 1 tcp 1040 ------- 0 0.0 4.0 15 24
+ 14.543813 1 2 tcp 1040 ------- 0 0.0 4.0 15 24
r 14.546587 0 1 tcp 1040 ------- 0 0.0 4.0 16 25
+ 14.546587 1 2 tcp 1040 ------- 0 0.0 4.0 16 25
r 14.58472 1 2 tcp 1040 ------- 0 0.0 4.0 10 16
+ 14.58472 2 3 tcp 1040 ------- 0 0.0 4.0 10 16
- 14.58472 2 3 tcp 1040 ------- 0 0.0 4.0 10 16
r 14.854267 3 2 ack 40 ------- 0 4.0 0.0 8 23
+ 14.854267 2 1 ack 40 ------- 0 4.0 0.0 8 23
- 14.854267 2 1 ack 40 ------- 0 4.0 0.0 8 23
- 14.951387 1 2 tcp 1040 ------- 0 0.0 4.0 12 19
r 15.08472 2 3 tcp 1040 ------- 0 0.0 4.0 9 15
+ 15.08472 3 4 tcp 1040 ------- 0 0.0 4.0 9 15
- 15.08472 3 4 tcp 1040 ------- 0 0.0 4.0 9 15
r 15.137493 3 4 tcp 1040 ------- 0 0.0 4.0 9 15
+ 15.137493 4 3 ack 40 ------- 0 4.0 0.0 9 26
- 15.137493 4 3 ack 40 ------- 0 4.0 0.0 9 26
r 15.1876 4 3 ack 40 ------- 0 4.0 0.0 9 26
+ 15.1876 3 2 ack 40 ------- 0 4.0 0.0 9 26
- 15.1876 3 2 ack 40 ------- 0 4.0 0.0 9 26
r 15.3876 2 1 ack 40 ------- 0 4.0 0.0 8 23
+ 15.3876 1 0 ack 40 ------- 0 4.0 0.0 8 23
- 15.3876 1 0 ack 40 ------- 0 4.0 0.0 8 23
r 15.397707 1 0 ack 40 ------- 0 4.0 0.0 8 23
+ 15.397707 0 1 tcp 1040 ------- 0 0.0 4.0 17 27
- 15.397707 0 1 tcp 1040 ------- 0 0.0 4.0 17 27
+ 15.397707 0 1 tcp 1040 ------- 0 0.0 4.0 18 28
- 15.40048 0 1 tcp 1040 ------- 0 0.0 4.0 18 28
r 15.41048 0 1 tcp 1040 ------- 0 0.0 4.0 17 27
+ 15.41048 1 2 tcp 1040 ------- 0 0.0 4.0 17 27
r 15.413253 0 1 tcp 1040 ------- 0 0.0 4.0 18 28
+ 15.413253 1 2 tcp 1040 ------- 0 0.0 4.0 18 28
r 15.451387 1 2 tcp 1040 ------- 0 0.0 4.0 11 18
+ 15.451387 2 3 tcp 1040 ------- 0 0.0 4.0 11 18
- 15.451387 2 3 tcp 1040 ------- 0 0.0 4.0 11 18
r 15.720933 3 2 ack 40 ------- 0 4.0 0.0 9 26
+ 15.720933 2 1 ack 40 ------- 0 4.0 0.0 9 26
- 15.720933 2 1 ack 40 ------- 0 4.0 0.0 9 26
- 15.818053 1 2 tcp 1040 ------- 0 0.0 4.0 13 20
r 15.951387 2 3 tcp 1040 ------- 0 0.0 4.0 10 16
+ 15.951387 3 4 tcp 1040 ------- 0 0.0 4.0 10 16
- 15.951387 3 4 tcp 1040 ------- 0 0.0 4.0 10 16
r 16.00416 3 4 tcp 1040 ------- 0 0.0 4.0 10 16
+ 16.00416 4 3 ack 40 ------- 0 4.0 0.0 10 29
- 16.00416 4 3 ack 40 ------- 0 4.0 0.0 10 29
r 16.054267 4 3 ack 40 ------- 0 4.0 0.0 10 29
+ 16.054267 3 2 ack 40 ------- 0 4.0 0.0 10 29
- 16.054267 3 2 ack 40 ------- 0 4.0 0.0 10 29
r 16.254267 2 1 ack 40 ------- 0 4.0 0.0 9 26
+ 16.254267 1 0 ack 40 ------- 0 4.0 0.0 9 26
- 16.254267 1 0 ack 40 ------- 0 4.0 0.0 9 26
r 16.264373 1 0 ack 40 ------- 0 4.0 0.0 9 26
+ 16.264373 0 1 tcp 1040 ------- 0 0.0 4.0 19 30
- 16.264373 0 1 tcp 1040 ------- 0 0.0 4.0 19 30
+ 16.264373 0 1 tcp 1040 ------- 0 0.0 4.0 20 31
- 16.267147 0 1 tcp 1040 ------- 0 0.0 4.0 20 31
r 16.277147 0 1 tcp 1040 ------- 0 0.0 4.0 19 30
+ 16.277147 1 2 tcp 1040 ------- 0 0.0 4.0 19 30
r 16.27992 0 1 tcp 1040 ------- 0 0.0 4.0 20 31
+ 16.27992 1 2 tcp 1040 ------- 0 0.0 4.0 20 31
d 16.27992 1 2 tcp 1040 ------- 0 0.0 4.0 20 31
r 16.318053 1 2 tcp 1040 ------- 0 0.0 4.0 12 19
+ 16.318053 2 3 tcp 1040 ------- 0 0.0 4.0 12 19
- 16.318053 2 3 tcp 1040 ------- 0 0.0 4.0 12 19
r 16.5876 3 2 ack 40 ------- 0 4.0 0.0 10 29
+ 16.5876 2 1 ack 40 ------- 0 4.0 0.0 10 29
- 16.5876 2 1 ack 40 ------- 0 4.0 0.0 10 29
- 16.68472 1 2 tcp 1040 ------- 0 0.0 4.0 14 21
r 16.818053 2 3 tcp 1040 ------- 0 0.0 4.0 11 18
+ 16.818053 3 4 tcp 1040 ------- 0 0.0 4.0 11 18
- 16.818053 3 4 tcp 1040 ------- 0 0.0 4.0 11 18
r 16.870827 3 4 tcp 1040 ------- 0 0.0 4.0 11 18
+ 16.870827 4 3 ack 40 ------- 0 4.0 0.0 11 32
- 16.870827 4 3 ack 40 ------- 0 4.0 0.0 11 32
r 16.920933 4 3 ack 40 ------- 0 4.0 0.0 11 32
+ 16.920933 3 2 ack 40 ------- 0 4.0 0.0 11 32
- 16.920933 3 2 ack 40 ------- 0 4.0 0.0 11 32
r 17.120933 2 1 ack 40 ------- 0 4.0 0.0 10 29
+ 17.120933 1 0 ack 40 ------- 0 4.0 0.0 10 29
- 17.120933 1 0 ack 40 ------- 0 4.0 0.0 10 29
r 17.13104 1 0 ack 40 ------- 0 4.0 0.0 10 29
+ 17.13104 0 1 tcp 1040 ------- 0 0.0 4.0 21 33
- 17.13104 0 1 tcp 1040 ------- 0 0.0 4.0 21 33
+ 17.13104 0 1 tcp 1040 ------- 0 0.0 4.0 22 34
- 17.133813 0 1 tcp 1040 ------- 0 0.0 4.0 22 34
r 17.143813 0 1 tcp 1040 ------- 0 0.0 4.0 21 33
+ 17.143813 1 2 tcp 1040 ------- 0 0.0 4.0 21 33
r 17.146587 0 1 tcp 1040 ------- 0 0.0 4.0 22 34
+ 17.146587 1 2 tcp 1040 ------- 0 0.0 4.0 22 34
d 17.146587 1 2 tcp 1040 ------- 0 0.0 4.0 22 34
r 17.18472 1 2 tcp 1040 ------- 0 0.0 4.0 13 20
+ 17.18472 2 3 tcp 1040 ------- 0 0.0 4.0 13 20
- 17.18472 2 3 tcp 1040 ------- 0 0.0 4.0 13 20
r 17.454267 3 2 ack 40 ------- 0 4.0 0.0 11 32
+ 17.454267 2 1 ack 40 ------- 0 4.0 0.0 11 32
- 17.454267 2 1 ack 40 ------- 0 4.0 0.0 11 32
- 17.551387 1 2 tcp 1040 ------- 0 0.0 4.0 15 24
r 17.68472 2 3 tcp 1040 ------- 0 0.0 4.0 12 19
+ 17.68472 3 4 tcp 1040 ------- 0 0.0 4.0 12 19
- 17.68472 3 4 tcp 1040 ------- 0 0.0 4.0 12 19
r 17.737493 3 4 tcp 1040 ------- 0 0.0 4.0 12 19
+ 17.737493 4 3 ack 40 ------- 0 4.0 0.0 12 35
- 17.737493 4 3 ack 40 ------- 0 4.0 0.0 12 35
r 17.7876 4 3 ack 40 ------- 0 4.0 0.0 12 35
+ 17.7876 3 2 ack 40 ------- 0 4.0 0.0 12 35
- 17.7876 3 2 ack 40 ------- 0 4.0 0.0 12 35
r 17.9876 2 1 ack 40 ------- 0 4.0 0.0 11 32
+ 17.9876 1 0 ack 40 ------- 0 4.0 0.0 11 32
- 17.9876 1 0 ack 40 ------- 0 4.0 0.0 11 32
r 17.997707 1 0 ack 40 ------- 0 4.0 0.0 11 32
+ 17.997707 0 1 tcp 1040 ------- 0 0.0 4.0 23 36
- 17.997707 0 1 tcp 1040 ------- 0 0.0 4.0 23 36
+ 17.997707 0 1 tcp 1040 ------- 0 0.0 4.0 24 37
- 18.00048 0 1 tcp 1040 ------- 0 0.0 4.0 24 37
r 18.01048 0 1 tcp 1040 ------- 0 0.0 4.0 23 36
+ 18.01048 1 2 tcp 1040 ------- 0 0.0 4.0 23 36
r 18.013253 0 1 tcp 1040 ------- 0 0.0 4.0 24 37
+ 18.013253 1 2 tcp 1040 ------- 0 0.0 4.0 24 37
d 18.013253 1 2 tcp 1040 ------- 0 0.0 4.0 24 37
r 18.051387 1 2 tcp 1040 ------- 0 0.0 4.0 14 21
+ 18.051387 2 3 tcp 1040 ------- 0 0.0 4.0 14 21
- 18.051387 2 3 tcp 1040 ------- 0 0.0 4.0 14 21
r 18.320933 3 2 ack 40 ------- 0 4.0 0.0 12 35
+ 18.320933 2 1 ack 40 ------- 0 4.0 0.0 12 35
- 18.320933 2 1 ack 40 ------- 0 4.0 0.0 12 35
- 18.418053 1 2 tcp 1040 ------- 0 0.0 4.0 16 25
r 18.551387 2 3 tcp 1040 ------- 0 0.0 4.0 13 20
+ 18.551387 3 4 tcp 1040 ------- 0 0.0 4.0 13 20
- 18.551387 3 4 tcp 1040 ------- 0 0.0 4.0 13 20
r 18.60416 3 4 tcp 1040 ------- 0 0.0 4.0 13 20
+ 18.60416 4 3 ack 40 ------- 0 4.0 0.0 13 38
- 18.60416 4 3 ack 40 ------- 0 4.0 0.0 13 38
r 18.654267 4 3 ack 40 ------- 0 4.0 0.0 13 38
+ 18.654267 3 2 ack 40 ------- 0 4.0 0.0 13 38
- 18.654267 3 2 ack 40 ------- 0 4.0 0.0 13 38
r 18.854267 2 1 ack 40 ------- 0 4.0 0.0 12 35
+ 18.854267 1 0 ack 40 ------- 0 4.0 0.0 12 35
- 18.854267 1 0 ack 40 ------- 0 4.0 0.0 12 35
r 18.864373 1 0 ack 40 ------- 0 4.0 0.0 12 35
+ 18.864373 0 1 tcp 1040 ------- 0 0.0 4.0 25 39
- 18.864373 0 1 tcp 1040 ------- 0 0.0 4.0 25 39
+ 18.864373 0 1 tcp 1040 ------- 0 0.0 4.0 26 40
- 18.867147 0 1 tcp 1040 ------- 0 0.0 4.0 26 40
r 18.877147 0 1 tcp 1040 ------- 0 0.0 4.0 25 39
+ 18.877147 1 2 tcp 1040 ------- 0 0.0 4.0 25 39
r 18.87992 0 1 tcp 1040 ------- 0 0.0 4.0 26 40
+ 18.87992 1 2 tcp 1040 ------- 0 0.0 4.0 26 40
d 18.87992 1 2 tcp 1040 ------- 0 0.0 4.0 26 40
r 18.918053 1 2 tcp 1040 ------- 0 0.0 4.0 15 24
+ 18.918053 2 3 tcp 1040 ------- 0 0.0 4.0 15 24
- 18.918053 2 3 tcp 1040 ------- 0 0.0 4.0 15 24
r 19.1876 3 2 ack 40 ------- 0 4.0 0.0 13 38
+ 19.1876 2 1 ack 40 ------- 0 4.0 0.0 13 38
- 19.1876 2 1 ack 40 ------- 0 4.0 0.0 13 38
- 19.28472 1 2 tcp 1040 ------- 0 0.0 4.0 17 27
r 19.418053 2 3 tcp 1040 ------- 0 0.0 4.0 14 21
+ 19.418053 3 4 tcp 1040 ------- 0 0.0 4.0 14 21
- 19.418053 3 4 tcp 1040 ------- 0 0.0 4.0 14 21
r 19.470827 3 4 tcp 1040 ------- 0 0.0 4.0 14 21
+ 19.470827 4 3 ack 40 ------- 0 4.0 0.0 14 41
- 19.470827 4 3 ack 40 ------- 0 4.0 0.0 14 41
r 19.520933 4 3 ack 40 ------- 0 4.0 0.0 14 41
+ 19.520933 3 2 ack 40 ------- 0 4.0 0.0 14 41
- 19.520933 3 2 ack 40 ------- 0 4.0 0.0 14 41
r 19.720933 2 1 ack 40 ------- 0 4.0 0.0 13 38
+ 19.720933 1 0 ack 40 ------- 0 4.0 0.0 13 38
- 19.720933 1 0 ack 40 ------- 0 4.0 0.0 13 38
r 19.73104 1 0 ack 40 ------- 0 4.0 0.0 13 38
+ 19.73104 0 1 tcp 1040 ------- 0 0.0 4.0 27 42
- 19.73104 0 1 tcp 1040 ------- 0 0.0 4.0 27 42
+ 19.73104 0 1 tcp 1040 ------- 0 0.0 4.0 28 43
- 19.733813 0 1 tcp 1040 ------- 0 0.0 4.0 28 43
r 19.743813 0 1 tcp 1040 ------- 0 0.0 4.0 27 42
+ 19.743813 1 2 tcp 1040 ------- 0 0.0 4.0 27 42
r 19.746587 0 1 tcp 1040 ------- 0 0.0 4.0 28 43
+ 19.746587 1 2 tcp 1040 ------- 0 0.0 4.0 28 43
d 19.746587 1 2 tcp 1040 ------- 0 0.0 4.0 28 43
r 19.78472 1 2 tcp 1040 ------- 0 0.0 4.0 16 25
+ 19.78472 2 3 tcp 1040 ------- 0 0.0 4.0 16 25
- 19.78472 2 3 tcp 1040 ------- 0 0.0 4.0 16 25
r 20.054267 3 2 ack 40 ------- 0 4.0 0.0 14 41
+ 20.054267 2 1 ack 40 ------- 0 4.0 0.0 14 41
- 20.054267 2 1 ack 40 ------- 0 4.0 0.0 14 41
- 20.151387 1 2 tcp 1040 ------- 0 0.0 4.0 18 28
r 20.28472 2 3 tcp 1040 ------- 0 0.0 4.0 15 24
+ 20.28472 3 4 tcp 1040 ------- 0 0.0 4.0 15 24
- 20.28472 3 4 tcp 1040 ------- 0 0.0 4.0 15 24
r 20.337493 3 4 tcp 1040 ------- 0 0.0 4.0 15 24
+ 20.337493 4 3 ack 40 ------- 0 4.0 0.0 15 44
- 20.337493 4 3 ack 40 ------- 0 4.0 0.0 15 44
r 20.3876 4 3 ack 40 ------- 0 4.0 0.0 15 44
+ 20.3876 3 2 ack 40 ------- 0 4.0 0.0 15 44
- 20.3876 3 2 ack 40 ------- 0 4.0 0.0 15 44
r 20.5876 2 1 ack 40 ------- 0 4.0 0.0 14 41
+ 20.5876 1 0 ack 40 ------- 0 4.0 0.0 14 41
- 20.5876 1 0 ack 40 ------- 0 4.0 0.0 14 41
r 20.597707 1 0 ack 40 ------- 0 4.0 0.0 14 41
+ 20.597707 0 1 tcp 1040 ------- 0 0.0 4.0 29 45
- 20.597707 0 1 tcp 1040 ------- 0 0.0 4.0 29 45
+ 20.597707 0 1 tcp 1040 ------- 0 0.0 4.0 30 46
- 20.60048 0 1 tcp 1040 ------- 0 0.0 4.0 30 46
r 20.61048 0 1 tcp 1040 ------- 0 0.0 4.0 29 45
+ 20.61048 1 2 tcp 1040 ------- 0 0.0 4.0 29 45
r 20.613253 0 1 tcp 1040 ------- 0 0.0 4.0 30 46
+ 20.613253 1 2 tcp 1040 ------- 0 0.0 4.0 30 46
d 20.613253 1 2 tcp 1040 ------- 0 0.0 4.0 30 46
r 20.651387 1 2 tcp 1040 ------- 0 0.0 4.0 17 27
+ 20.651387 2 3 tcp 1040 ------- 0 0.0 4.0 17 27
- 20.651387 2 3 tcp 1040 ------- 0 0.0 4.0 17 27
r 20.920933 3 2 ack 40 ------- 0 4.0 0.0 15 44
+ 20.920933 2 1 ack 40 ------- 0 4.0 0.0 15 44
- 20.920933 2 1 ack 40 ------- 0 4.0 0.0 15 44
- 21.018053 1 2 tcp 1040 ------- 0 0.0 4.0 19 30
r 21.151387 2 3 tcp 1040 ------- 0 0.0 4.0 16 25
+ 21.151387 3 4 tcp 1040 ------- 0 0.0 4.0 16 25
- 21.151387 3 4 tcp 1040 ------- 0 0.0 4.0 16 25
r 21.20416 3 4 tcp 1040 ------- 0 0.0 4.0 16 25
+ 21.20416 4 3 ack 40 ------- 0 4.0 0.0 16 47
- 21.20416 4 3 ack 40 ------- 0 4.0 0.0 16 47
r 21.254267 4 3 ack 40 ------- 0 4.0 0.0 16 47
+ 21.254267 3 2 ack 40 ------- 0 4.0 0.0 16 47
- 21.254267 3 2 ack 40 ------- 0 4.0 0.0 16 47
r 21.454267 2 1 ack 40 ------- 0 4.0 0.0 15 44
+ 21.454267 1 0 ack 40 ------- 0 4.0 0.0 15 44
- 21.454267 1 0 ack 40 ------- 0 4.0 0.0 15 44
r 21.464373 1 0 ack 40 ------- 0 4.0 0.0 15 44
+ 21.464373 0 1 tcp 1040 ------- 0 0.0 4.0 31 48
- 21.464373 0 1 tcp 1040 ------- 0 0.0 4.0 31 48
+ 21.464373 0 1 tcp 1040 ------- 0 0.0 4.0 32 49
- 21.467147 0 1 tcp 1040 ------- 0 0.0 4.0 32 49
r 21.477147 0 1 tcp 1040 ------- 0 0.0 4.0 31 48
+ 21.477147 1 2 tcp 1040 ------- 0 0.0 4.0 31 48
r 21.47992 0 1 tcp 1040 ------- 0 0.0 4.0 32 49
+ 21.47992 1 2 tcp 1040 ------- 0 0.0 4.0 32 49
d 21.47992 1 2 tcp 1040 ------- 0 0.0 4.0 32 49
r 21.518053 1 2 tcp 1040 ------- 0 0.0 4.0 18 28
+ 21.518053 2 3 tcp 1040 ------- 0 0.0 4.0 18 28
- 21.518053 2 3 tcp 1040 ------- 0 0.0 4.0 18 28
r 21.7876 3 2 ack 40 ------- 0 4.0 0.0 16 47
+ 21.7876 2 1 ack 40 ------- 0 4.0 0.0 16 47
- 21.7876 2 1 ack 40 ------- 0 4.0 0.0 16 47
- 21.88472 1 2 tcp 1040 ------- 0 0.0 4.0 21 33
r 22.018053 2 3 tcp 1040 ------- 0 0.0 4.0 17 27
+ 22.018053 3 4 tcp 1040 ------- 0 0.0 4.0 17 27
- 22.018053 3 4 tcp 1040 ------- 0 0.0 4.0 17 27
r 22.070827 3 4 tcp 1040 ------- 0 0.0 4.0 17 27
+ 22.070827 4 3 ack 40 ------- 0 4.0 0.0 17 50
- 22.070827 4 3 ack 40 ------- 0 4.0 0.0 17 50
r 22.120933 4 3 ack 40 ------- 0 4.0 0.0 17 50
+ 22.120933 3 2 ack 40 ------- 0 4.0 0.0 17 50
- 22.120933 3 2 ack 40 ------- 0 4.0 0.0 17 50
r 22.320933 2 1 ack 40 ------- 0 4.0 0.0 16 47
+ 22.320933 1 0 ack 40 ------- 0 4.0 0.0 16 47
- 22.320933 1 0 ack 40 ------- 0 4.0 0.0 16 47
r 22.33104 1 0 ack 40 ------- 0 4.0 0.0 16 47
+ 22.33104 0 1 tcp 1040 ------- 0 0.0 4.0 33 51
- 22.33104 0 1 tcp 1040 ------- 0 0.0 4.0 33 51
+ 22.33104 0 1 tcp 1040 ------- 0 0.0 4.0 34 52
- 22.333813 0 1 tcp 1040 ------- 0 0.0 4.0 34 52
r 22.343813 0 1 tcp 1040 ------- 0 0.0 4.0 33 51
+ 22.343813 1 2 tcp 1040 ------- 0 0.0 4.0 33 51
r 22.346587 0 1 tcp 1040 ------- 0 0.0 4.0 34 52
+ 22.346587 1 2 tcp 1040 ------- 0 0.0 4.0 34 52
d 22.346587 1 2 tcp 1040 ------- 0 0.0 4.0 34 52
r 22.38472 1 2 tcp 1040 ------- 0 0.0 4.0 19 30
+ 22.38472 2 3 tcp 1040 ------- 0 0.0 4.0 19 30
- 22.38472 2 3 tcp 1040 ------- 0 0.0 4.0 19 30
r 22.654267 3 2 ack 40 ------- 0 4.0 0.0 17 50
+ 22.654267 2 1 ack 40 ------- 0 4.0 0.0 17 50
- 22.654267 2 1 ack 40 ------- 0 4.0 0.0 17 50
- 22.751387 1 2 tcp 1040 ------- 0 0.0 4.0 23 36
r 22.88472 2 3 tcp 1040 ------- 0 0.0 4.0 18 28
+ 22.88472 3 4 tcp 1040 ------- 0 0.0 4.0 18 28
- 22.88472 3 4 tcp 1040 ------- 0 0.0 4.0 18 28
r 22.937493 3 4 tcp 1040 ------- 0 0.0 4.0 18 28
+ 22.937493 4 3 ack 40 ------- 0 4.0 0.0 18 53
- 22.937493 4 3 ack 40 ------- 0 4.0 0.0 18 53
r 22.9876 4 3 ack 40 ------- 0 4.0 0.0 18 53
+ 22.9876 3 2 ack 40 ------- 0 4.0 0.0 18 53
- 22.9876 3 2 ack 40 ------- 0 4.0 0.0 18 53
r 23.1876 2 1 ack 40 ------- 0 4.0 0.0 17 50
+ 23.1876 1 0 ack 40 ------- 0 4.0 0.0 17 50
- 23.1876 1 0 ack 40 ------- 0 4.0 0.0 17 50
r 23.197707 1 0 ack 40 ------- 0 4.0 0.0 17 50
+ 23.197707 0 1 tcp 1040 ------- 0 0.0 4.0 35 54
- 23.197707 0 1 tcp 1040 ------- 0 0.0 4.0 35 54
+ 23.197707 0 1 tcp 1040 ------- 0 0.0 4.0 36 55
- 23.20048 0 1 tcp 1040 ------- 0 0.0 4.0 36 55
r 23.21048 0 1 tcp 1040 ------- 0 0.0 4.0 35 54
+ 23.21048 1 2 tcp 1040 ------- 0 0.0 4.0 35 54
r 23.213253 0 1 tcp 1040 ------- 0 0.0 4.0 36 55
+ 23.213253 1 2 tcp 1040 ------- 0 0.0 4.0 36 55
d 23.213253 1 2 tcp 1040 ------- 0 0.0 4.0 36 55
r 23.251387 1 2 tcp 1040 ------- 0 0.0 4.0 21 33
+ 23.251387 2 3 tcp 1040 ------- 0 0.0 4.0 21 33
- 23.251387 2 3 tcp 1040 ------- 0 0.0 4.0 21 33
r 23.520933 3 2 ack 40 ------- 0 4.0 0.0 18 53
+ 23.520933 2 1 ack 40 ------- 0 4.0 0.0 18 53
- 23.520933 2 1 ack 40 ------- 0 4.0 0.0 18 53
- 23.618053 1 2 tcp 1040 ------- 0 0.0 4.0 25 39
r 23.751387 2 3 tcp 1040 ------- 0 0.0 4.0 19 30
+ 23.751387 3 4 tcp 1040 ------- 0 0.0 4.0 19 30
- 23.751387 3 4 tcp 1040 ------- 0 0.0 4.0 19 30
r 23.80416 3 4 tcp 1040 ------- 0 0.0 4.0 19 30
+ 23.80416 4 3 ack 40 ------- 0 4.0 0.0 19 56
- 23.80416 4 3 ack 40 ------- 0 4.0 0.0 19 56
r 23.854267 4 3 ack 40 ------- 0 4.0 0.0 19 56
+ 23.854267 3 2 ack 40 ------- 0 4.0 0.0 19 56
- 23.854267 3 2 ack 40 ------- 0 4.0 0.0 19 56
r 24.054267 2 1 ack 40 ------- 0 4.0 0.0 18 53
+ 24.054267 1 0 ack 40 ------- 0 4.0 0.0 18 53
- 24.054267 1 0 ack 40 ------- 0 4.0 0.0 18 53
r 24.064373 1 0 ack 40 ------- 0 4.0 0.0 18 53
+ 24.064373 0 1 tcp 1040 ------- 0 0.0 4.0 37 57
- 24.064373 0 1 tcp 1040 ------- 0 0.0 4.0 37 57
+ 24.064373 0 1 tcp 1040 ------- 0 0.0 4.0 38 58
- 24.067147 0 1 tcp 1040 ------- 0 0.0 4.0 38 58
r 24.077147 0 1 tcp 1040 ------- 0 0.0 4.0 37 57
+ 24.077147 1 2 tcp 1040 ------- 0 0.0 4.0 37 57
r 24.07992 0 1 tcp 1040 ------- 0 0.0 4.0 38 58
+ 24.07992 1 2 tcp 1040 ------- 0 0.0 4.0 38 58
d 24.07992 1 2 tcp 1040 ------- 0 0.0 4.0 38 58
r 24.118053 1 2 tcp 1040 ------- 0 0.0 4.0 23 36
+ 24.118053 2 3 tcp 1040 ------- 0 0.0 4.0 23 36
- 24.118053 2 3 tcp 1040 ------- 0 0.0 4.0 23 36
r 24.3876 3 2 ack 40 ------- 0 4.0 0.0 19 56
+ 24.3876 2 1 ack 40 ------- 0 4.0 0.0 19 56
- 24.3876 2 1 ack 40 ------- 0 4.0 0.0 19 56
- 24.48472 1 2 tcp 1040 ------- 0 0.0 4.0 27 42
r 24.618053 2 3 tcp 1040 ------- 0 0.0 4.0 21 33
+ 24.618053 3 4 tcp 1040 ------- 0 0.0 4.0 21 33
- 24.618053 3 4 tcp 1040 ------- 0 0.0 4.0 21 33
r 24.670827 3 4 tcp 1040 ------- 0 0.0 4.0 21 33
+ 24.670827 4 3 ack 48 ------- 0 4.0 0.0 19 59
- 24.670827 4 3 ack 48 ------- 0 4.0 0.0 19 59
r 24.720955 4 3 ack 48 ------- 0 4.0 0.0 19 59
+ 24.720955 3 2 ack 48 ------- 0 4.0 0.0 19 59
- 24.720955 3 2 ack 48 ------- 0 4.0 0.0 19 59
r 24.920933 2 1 ack 40 ------- 0 4.0 0.0 19 56
+ 24.920933 1 0 ack 40 ------- 0 4.0 0.0 19 56
- 24.920933 1 0 ack 40 ------- 0 4.0 0.0 19 56
r 24.93104 1 0 ack 40 ------- 0 4.0 0.0 19 56
+ 24.93104 0 1 tcp 1040 ------- 0 0.0 4.0 39 60
- 24.93104 0 1 tcp 1040 ------- 0 0.0 4.0 39 60
+ 24.93104 0 1 tcp 1040 ------- 0 0.0 4.0 40 61
- 24.933813 0 1 tcp 1040 ------- 0 0.0 4.0 40 61
r 24.943813 0 1 tcp 1040 ------- 0 0.0 4.0 39 60
+ 24.943813 1 2 tcp 1040 ------- 0 0.0 4.0 39 60
r 24.946587 0 1 tcp 1040 ------- 0 0.0 4.0 40 61
+ 24.946587 1 2 tcp 1040 ------- 0 0.0 4.0 40 61
d 24.946587 1 2 tcp 1040 ------- 0 0.0 4.0 40 61
r 24.98472 1 2 tcp 1040 ------- 0 0.0 4.0 25 39
+ 24.98472 2 3 tcp 1040 ------- 0 0.0 4.0 25 39
- 24.98472 2 3 tcp 1040 ------- 0 0.0 4.0 25 39
r 25.260955 3 2 ack 48 ------- 0 4.0 0.0 19 59
+ 25.260955 2 1 ack 48 ------- 0 4.0 0.0 19 59
- 25.260955 2 1 ack 48 ------- 0 4.0 0.0 19 59
- 25.351387 1 2 tcp 1040 ------- 0 0.0 4.0 29 45
r 25.48472 2 3 tcp 1040 ------- 0 0.0 4.0 23 36
+ 25.48472 3 4 tcp 1040 ------- 0 0.0 4.0 23 36
- 25.48472 3 4 tcp 1040 ------- 0 0.0 4.0 23 36
r 25.537493 3 4 tcp 1040 ------- 0 0.0 4.0 23 36
+ 25.537493 4 3 ack 56 ------- 0 4.0 0.0 19 62
- 25.537493 4 3 ack 56 ------- 0 4.0 0.0 19 62
r 25.587643 4 3 ack 56 ------- 0 4.0 0.0 19 62
+ 25.587643 3 2 ack 56 ------- 0 4.0 0.0 19 62
- 25.587643 3 2 ack 56 ------- 0 4.0 0.0 19 62
r 25.800955 2 1 ack 48 ------- 0 4.0 0.0 19 59
+ 25.800955 1 0 ack 48 ------- 0 4.0 0.0 19 59
- 25.800955 1 0 ack 48 ------- 0 4.0 0.0 19 59
r 25.811083 1 0 ack 48 ------- 0 4.0 0.0 19 59
+ 25.811083 0 1 tcp 1040 ------- 0 0.0 4.0 41 63
- 25.811083 0 1 tcp 1040 ------- 0 0.0 4.0 41 63
r 25.823856 0 1 tcp 1040 ------- 0 0.0 4.0 41 63
+ 25.823856 1 2 tcp 1040 ------- 0 0.0 4.0 41 63
r 25.851387 1 2 tcp 1040 ------- 0 0.0 4.0 27 42
+ 25.851387 2 3 tcp 1040 ------- 0 0.0 4.0 27 42
- 25.851387 2 3 tcp 1040 ------- 0 0.0 4.0 27 42
r 26.134309 3 2 ack 56 ------- 0 4.0 0.0 19 62
+ 26.134309 2 1 ack 56 ------- 0 4.0 0.0 19 62
- 26.134309 2 1 ack 56 ------- 0 4.0 0.0 19 62
- 26.218053 1 2 tcp 1040 ------- 0 0.0 4.0 31 48
r 26.351387 2 3 tcp 1040 ------- 0 0.0 4.0 25 39
+ 26.351387 3 4 tcp 1040 ------- 0 0.0 4.0 25 39
- 26.351387 3 4 tcp 1040 ------- 0 0.0 4.0 25 39
r 26.40416 3 4 tcp 1040 ------- 0 0.0 4.0 25 39
+ 26.40416 4 3 ack 64 ------- 0 4.0 0.0 19 64
- 26.40416 4 3 ack 64 ------- 0 4.0 0.0 19 64
r 26.454331 4 3 ack 64 ------- 0 4.0 0.0 19 64
+ 26.454331 3 2 ack 64 ------- 0 4.0 0.0 19 64
- 26.454331 3 2 ack 64 ------- 0 4.0 0.0 19 64
r 26.680976 2 1 ack 56 ------- 0 4.0 0.0 19 62
+ 26.680976 1 0 ack 56 ------- 0 4.0 0.0 19 62
- 26.680976 1 0 ack 56 ------- 0 4.0 0.0 19 62
r 26.691125 1 0 ack 56 ------- 0 4.0 0.0 19 62