V -t * -v 1.0a5 -a 0
A -t * -n 1 -p 0 -o 0x7fffffff -c 30 -a 1
A -t * -h 1 -m 1073741823 -s 0
n -t * -a 4 -s 4 -S UP -v circle -c black -i black
n -t * -a 0 -s 0 -S UP -v circle -c black -i black
n -t * -a 1 -s 1 -S UP -v circle -c black -i black
n -t * -a 2 -s 2 -S UP -v circle -c black -i black
n -t * -a 3 -s 3 -S UP -v circle -c black -i black
l -t * -s 0 -d 1 -S UP -r 3000000 -D 0.01 -c black
l -t * -s 1 -d 2 -S UP -r 9600 -D 0.5 -c black
l -t * -s 2 -d 3 -S UP -r 9600 -D 0.5 -c black
l -t * -s 3 -d 4 -S UP -r 3000000 -D 0.050000000000000003 -c black
+ -t 0.5 -s 0 -d 1 -p tcp -e 40 -c 0 -i 0 -a 0 -x {0.0 4.0 0 ------- null}
- -t 0.5 -s 0 -d 1 -p tcp -e 40 -c 0 -i 0 -a 0 -x {0.0 4.0 0 ------- null}
h -t 0.5 -s 0 -d 1 -p tcp -e 40 -c 0 -i 0 -a 0 -x {0.0 4.0 -1 ------- null}
r -t 0.510106666666667 -s 0 -d 1 -p tcp -e 40 -c 0 -i 0 -a 0 -x {0.0 4.0 0 ------- null}
+ -t 0.510106666666667 -s 1 -d 2 -p tcp -e 40 -c 0 -i 0 -a 0 -x {0.0 4.0 0 ------- null}
- -t 0.510106666666667 -s 1 -d 2 -p tcp -e 40 -c 0 -i 0 -a 0 -x {0.0 4.0 0 ------- null}
h -t 0.510106666666667 -s 1 -d 2 -p tcp -e 40 -c 0 -i 0 -a 0 -x {0.0 4.0 -1 ------- null}
r -t 1.04344 -s 1 -d 2 -p tcp -e 40 -c 0 -i 0 -a 0 -x {0.0 4.0 0 ------- null}
+ -t 1.04344 -s 2 -d 3 -p tcp -e 40 -c 0 -i 0 -a 0 -x {0.0 4.0 0 ------- null}
- -t 1.04344 -s 2 -d 3 -p tcp -e 40 -c 0 -i 0 -a 0 -x {0.0 4.0 0 ------- null}
h -t 1.04344 -s 2 -d 3 -p tcp -e 40 -c 0 -i 0 -a 0 -x {0.0 4.0 -1 ------- null}
r -t 1.57677333333333 -s 2 -d 3 -p tcp -e 40 -c 0 -i 0 -a 0 -x {0.0 4.0 0 ------- null}
+ -t 1.57677333333333 -s 3 -d 4 -p tcp -e 40 -c 0 -i 0 -a 0 -x {0.0 4.0 0 ------- null}
- -t 1.57677333333333 -s 3 -d 4 -p tcp -e 40 -c 0 -i 0 -a 0 -x {0.0 4.0 0 ------- null}
h -t 1.57677333333333 -s 3 -d 4 -p tcp -e 40 -c 0 -i 0 -a 0 -x {0.0 4.0 -1 ------- null}
r -t 1.62688 -s 3 -d 4 -p tcp -e 40 -c 0 -i 0 -a 0 -x {0.0 4.0 0 ------- null}
+ -t 1.62688 -s 4 -d 3 -p ack -e 40 -c 0 -i 1 -a 0 -x {4.0 0.0 0 ------- null}
- -t 1.62688 -s 4 -d 3 -p ack -e 40 -c 0 -i 1 -a 0 -x {4.0 0.0 0 ------- null}
h -t 1.62688 -s 4 -d 3 -p ack -e 40 -c 0 -i 1 -a 0 -x {4.0 0.0 -1 ------- null}
r -t 1.67698666666667 -s 4 -d 3 -p ack -e 40 -c 0 -i 1 -a 0 -x {4.0 0.0 0 ------- null}
+ -t 1.67698666666667 -s 3 -d 2 -p ack -e 40 -c 0 -i 1 -a 0 -x {4.0 0.0 0 ------- null}
- -t 1.67698666666667 -s 3 -d 2 -p ack -e 40 -c 0 -i 1 -a 0 -x {4.0 0.0 0 ------- null}
h -t 1.67698666666667 -s 3 -d 2 -p ack -e 40 -c 0 -i 1 -a 0 -x {4.0 0.0 -1 ------- null}
r -t 2.21032 -s 3 -d 2 -p ack -e 40 -c 0 -i 1 -a 0 -x {4.0 0.0 0 ------- null}
+ -t 2.21032 -s 2 -d 1 -p ack -e 40 -c 0 -i 1 -a 0 -x {4.0 0.0 0 ------- null}
- -t 2.21032 -s 2 -d 1 -p ack -e 40 -c 0 -i 1 -a 0 -x {4.0 0.0 0 ------- null}
h -t 2.21032 -s 2 -d 1 -p ack -e 40 -c 0 -i 1 -a 0 -x {4.0 0.0 -1 ------- null}
r -t 2.74365333333333 -s 2 -d 1 -p ack -e 40 -c 0 -i 1 -a 0 -x {4.0 0.0 0 ------- null}
+ -t 2.74365333333333 -s 1 -d 0 -p ack -e 40 -c 0 -i 1 -a 0 -x {4.0 0.0 0 ------- null}
- -t 2.74365333333333 -s 1 -d 0 -p ack -e 40 -c 0 -i 1 -a 0 -x {4.0 0.0 0 ------- null}
h -t 2.74365333333333 -s 1 -d 0 -p ack -e 40 -c 0 -i 1 -a 0 -x {4.0 0.0 -1 ------- null}
r -t 2.75376 -s 1 -d 0 -p ack -e 40 -c 0 -i 1 -a 0 -x {4.0 0.0 0 ------- null}
+ -t 2.75376 -s 0 -d 1 -p tcp -e 1040 -c 0 -i 2 -a 0 -x {0.0 4.0 1 ------- null}
- -t 2.75376 -s 0 -d 1 -p tcp -e 1040 -c 0 -i 2 -a 0 -x {0.0 4.0 1 ------- null}
h -t 2.75376 -s 0 -d 1 -p tcp -e 1040 -c 0 -i 2 -a 0 -x {0.0 4.0 -1 ------- null}
+ -t 2.75376 -s 0 -d 1 -p tcp -e 1040 -c 0 -i 3 -a 0 -x {0.0 4.0 2 ------- null}
- -t 2.75653333333333 -s 0 -d 1 -p tcp -e 1040 -c 0 -i 3 -a 0 -x {0.0 4.0 2 ------- null}
h -t 2.75653333333333 -s 0 -d 1 -p tcp -e 1040 -c 0 -i 3 -a 0 -x {0.0 4.0 -1 ------- null}
r -t 2.76653333333333 -s 0 -d 1 -p tcp -e 1040 -c 0 -i 2 -a 0 -x {0.0 4.0 1 ------- null}
+ -t 2.76653333333333 -s 1 -d 2 -p tcp -e 1040 -c 0 -i 2 -a 0 -x {0.0 4.0 1 ------- null}
- -t 2.76653333333333 -s 1 -d 2 -p tcp -e 1040 -c 0 -i 2 -a 0 -x {0.0 4.0 1 ------- null}
h -t 2.76653333333333 -s 1 -d 2 -p tcp -e 1040 -c 0 -i 2 -a 0 -x {0.0 4.0 -1 ------- null}
r -t 2.76930666666667 -s 0 -d 1 -p tcp -e 1040 -c 0 -i 3 -a 0 -x {0.0 4.0 2 ------- null}
+ -t 2.76930666666667 -s 1 -d 2 -p tcp -e 1040 -c 0 -i 3 -a 0 -x {0.0 4.0 2 ------- null}
- -t 3.6332 -s 1 -d 2 -p tcp -e 1040 -c 0 -i 3 -a 0 -x {0.0 4.0 2 ------- null}
h -t 3.6332 -s 1 -d 2 -p tcp -e 1040 -c 0 -i 3 -a 0 -x {0.0 4.0 -1 ------- null}
r -t 4.1332 -s 1 -d 2 -p tcp -e 1040 -c 0 -i 2 -a 0 -x {0.0 4.0 1 ------- null}
+ -t 4.1332 -s 2 -d 3 -p tcp -e 1040 -c 0 -i 2 -a 0 -x {0.0 4.0 1 ------- null}
- -t 4.1332 -s 2 -d 3 -p tcp -e 1040 -c 0 -i 2 -a 0 -x {0.0 4.0 1 ------- null}
h -t 4.1332 -s 2 -d 3 -p tcp -e 1040 -c 0 -i 2 -a 0 -x {0.0 4.0 -1 ------- null}
r -t 4.99986666666667 -s 1 -d 2 -p tcp -e 1040 -c 0 -i 3 -a 0 -x {0.0 4.0 2 ------- null}
+ -t 4.99986666666667 -s 2 -d 3 -p tcp -e 1040 -c 0 -i 3 -a 0 -x {0.0 4.0 2 ------- null}
- -t 4.99986666666667 -s 2 -d 3 -p tcp -e 1040 -c 0 -i 3 -a 0 -x {0.0 4.0 2 ------- null}
h -t 4.99986666666667 -s 2 -d 3 -p tcp -e 1040 -c 0 -i 3 -a 0 -x {0.0 4.0 -1 ------- null}
r -t 5.49986666666667 -s 2 -d 3 -p tcp -e 1040 -c 0 -i 2 -a 0 -x {0.0 4.0 1 ------- null}
+ -t 5.49986666666667 -s 3 -d 4 -p tcp -e 1040 -c 0 -i 2 -a 0 -x {0.0 4.0 1 ------- null}
- -t 5.49986666666667 -s 3 -d 4 -p tcp -e 1040 -c 0 -i 2 -a 0 -x {0.0 4.0 1 ------- null}
h -t 5.49986666666667 -s 3 -d 4 -p tcp -e 1040 -c 0 -i 2 -a 0 -x {0.0 4.0 -1 ------- null}
r -t 5.55264 -s 3 -d 4 -p tcp -e 1040 -c 0 -i 2 -a 0 -x {0.0 4.0 1 ------- null}
+ -t 5.55264 -s 4 -d 3 -p ack -e 40 -c 0 -i 4 -a 0 -x {4.0 0.0 1 ------- null}
- -t 5.55264 -s 4 -d 3 -p ack -e 40 -c 0 -i 4 -a 0 -x {4.0 0.0 1 ------- null}
h -t 5.55264 -s 4 -d 3 -p ack -e 40 -c 0 -i 4 -a 0 -x {4.0 0.0 -1 ------- null}
r -t 5.60274666666667 -s 4 -d 3 -p ack -e 40 -c 0 -i 4 -a 0 -x {4.0 0.0 1 ------- null}
+ -t 5.60274666666667 -s 3 -d 2 -p ack -e 40 -c 0 -i 4 -a 0 -x {4.0 0.0 1 ------- null}
- -t 5.60274666666667 -s 3 -d 2 -p ack -e 40 -c 0 -i 4 -a 0 -x {4.0 0.0 1 ------- null}
h -t 5.60274666666667 -s 3 -d 2 -p ack -e 40 -c 0 -i 4 -a 0 -x {4.0 0.0 -1 ------- null}
r -t 6.13608 -s 3 -d 2 -p ack -e 40 -c 0 -i 4 -a 0 -x {4.0 0.0 1 ------- null}
+ -t 6.13608 -s 2 -d 1 -p ack -e 40 -c 0 -i 4 -a 0 -x {4.0 0.0 1 ------- null}
- -t 6.13608 -s 2 -d 1 -p ack -e 40 -c 0 -i 4 -a 0 -x {4.0 0.0 1 ------- null}
h -t 6.13608 -s 2 -d 1 -p ack -e 40 -c 0 -i 4 -a 0 -x {4.0 0.0 -1 ------- null}
r -t 6.36653333333333 -s 2 -d 3 -p tcp -e 1040 -c 0 -i 3 -a 0 -x {0.0 4.0 2 ------- null}
+ -t 6.36653333333333 -s 3 -d 4 -p tcp -e 1040 -c 0 -i 3 -a 0 -x {0.0 4.0 2 ------- null}
- -t 6.36653333333333 -s 3 -d 4 -p tcp -e 1040 -c 0 -i 3 -a 0 -x {0.0 4.0 2 ------- null}
h -t 6.36653333333333 -s 3 -d 4 -p tcp -e 1040 -c 0 -i 3 -a 0 -x {0.0 4.0 -1 ------- null}
r -t 6.41930666666667 -s 3 -d 4 -p tcp -e 1040 -c 0 -i 3 -a 0 -x {0.0 4.0 2 ------- null}
+ -t 6.41930666666667 -s 4 -d 3 -p ack -e 40 -c 0 -i 5 -a 0 -x {4.0 0.0 2 ------- null}
- -t 6.41930666666667 -s 4 -d 3 -p ack -e 40 -c 0 -i 5 -a 0 -x {4.0 0.0 2 ------- null}
h -t 6.41930666666667 -s 4 -d 3 -p ack -e 40 -c 0 -i 5 -a 0 -x {4.0 0.0 -1 ------- null}
r -t 6.46941333333333 -s 4 -d 3 -p ack -e 40 -c 0 -i 5 -a 0 -x {4.0 0.0 2 ------- null}
+ -t 6.46941333333333 -s 3 -d 2 -p ack -e 40 -c 0 -i 5 -a 0 -x {4.0 0.0 2 ------- null}
- -t 6.46941333333333 -s 3 -d 2 -p ack -e 40 -c 0 -i 5 -a 0 -x {4.0 0.0 2 ------- null}
h -t 6.46941333333333 -s 3 -d 2 -p ack -e 40 -c 0 -i 5 -a 0 -x {4.0 0.0 -1 ------- null}
r -t 6.66941333333333 -s 2 -d 1 -p ack -e 40 -c 0 -i 4 -a 0 -x {4.0 0.0 1 ------- null}
+ -t 6.66941333333333 -s 1 -d 0 -p ack -e 40 -c 0 -i 4 -a 0 -x {4.0 0.0 1 ------- null}
- -t 6.66941333333333 -s 1 -d 0 -p ack -e 40 -c 0 -i 4 -a 0 -x {4.0 0.0 1 ------- null}
h -t 6.66941333333333 -s 1 -d 0 -p ack -e 40 -c 0 -i 4 -a 0 -x {4.0 0.0 -1 ------- null}
r -t 6.67952 -s 1 -d 0 -p ack -e 40 -c 0 -i 4 -a 0 -x {4.0 0.0 1 ------- null}
+ -t 6.67952 -s 0 -d 1 -p tcp -e 1040 -c 0 -i 6 -a 0 -x {0.0 4.0 3 ------- null}
- -t 6.67952 -s 0 -d 1 -p tcp -e 1040 -c 0 -i 6 -a 0 -x {0.0 4.0 3 ------- null}
h -t 6.67952 -s 0 -d 1 -p tcp -e 1040 -c 0 -i 6 -a 0 -x {0.0 4.0 -1 ------- null}
+ -t 6.67952 -s 0 -d 1 -p tcp -e 1040 -c 0 -i 7 -a 0 -x {0.0 4.0 4 ------- null}
- -t 6.68229333333333 -s 0 -d 1 -p tcp -e 1040 -c 0 -i 7 -a 0 -x {0.0 4.0 4 ------- null}
h -t 6.68229333333333 -s 0 -d 1 -p tcp -e 1040 -c 0 -i 7 -a 0 -x {0.0 4.0 -1 ------- null}
r -t 6.69229333333333 -s 0 -d 1 -p tcp -e 1040 -c 0 -i 6 -a 0 -x {0.0 4.0 3 ------- null}
+ -t 6.69229333333333 -s 1 -d 2 -p tcp -e 1040 -c 0 -i 6 -a 0 -x {0.0 4.0 3 ------- null}
- -t 6.69229333333333 -s 1 -d 2 -p tcp -e 1040 -c 0 -i 6 -a 0 -x {0.0 4.0 3 ------- null}
h -t 6.69229333333333 -s 1 -d 2 -p tcp -e 1040 -c 0 -i 6 -a 0 -x {0.0 4.0 -1 ------- null}
r -t 6.69506666666667 -s 0 -d 1 -p tcp -e 1040 -c 0 -i 7 -a 0 -x {0.0 4.0 4 ------- null}
+ -t 6.69506666666667 -s 1 -d 2 -p tcp -e 1040 -c 0 -i 7 -a 0 -x {0.0 4.0 4 ------- null}
r -t 7.00274666666667 -s 3 -d 2 -p ack -e 40 -c 0 -i 5 -a 0 -x {4.0 0.0 2 ------- null}
+ -t 7.00274666666667 -s 2 -d 1 -p ack -e 40 -c 0 -i 5 -a 0 -x {4.0 0.0 2 ------- null}
- -t 7.00274666666667 -s 2 -d 1 -p ack -e 40 -c 0 -i 5 -a 0 -x {4.0 0.0 2 ------- null}
h -t 7.00274666666667 -s 2 -d 1 -p ack -e 40 -c 0 -i 5 -a 0 -x {4.0 0.0 -1 ------- null}
r -t 7.53608 -s 2 -d 1 -p ack -e 40 -c 0 -i 5 -a 0 -x {4.0 0.0 2 ------- null}
+ -t 7.53608 -s 1 -d 0 -p ack -e 40 -c 0 -i 5 -a 0 -x {4.0 0.0 2 ------- null}
- -t 7.53608 -s 1 -d 0 -p ack -e 40 -c 0 -i 5 -a 0 -x {4.0 0.0 2 ------- null}
h -t 7.53608 -s 1 -d 0 -p ack -e 40 -c 0 -i 5 -a 0 -x {4.0 0.0 -1 ------- null}
r -t 7.54618666666667 -s 1 -d 0 -p ack -e 40 -c 0 -i 5 -a 0 -x {4.0 0.0 2 ------- null}
+ -t 7.54618666666667 -s 0 -d 1 -p tcp -e 1040 -c 0 -i 8 -a 0 -x {0.0 4.0 5 ------- null}
- -t 7.54618666666667 -s 0 -d 1 -p tcp -e 1040 -c 0 -i 8 -a 0 -x {0.0 4.0 5 ------- null}
h -t 7.54618666666667 -s 0 -d 1 -p tcp -e 1040 -c 0 -i 8 -a 0 -x {0.0 4.0 -1 ------- null}
+ -t 7.54618666666667 -s 0 -d 1 -p tcp -e 1040 -c 0 -i 9 -a 0 -x {0.0 4.0 6 ------- null}
- -t 7.54896 -s 0 -d 1 -p tcp -e 1040 -c 0 -i 9 -a 0 -x {0.0 4.0 6 ------- null}
h -t 7.54896 -s 0 -d 1 -p tcp -e 1040 -c 0 -i 9 -a 0 -x {0.0 4.0 -1 ------- null}
- -t 7.55896 -s 1 -d 2 -p tcp -e 1040 -c 0 -i 7 -a 0 -x {0.0 4.0 4 ------- null}
h -t 7.55896 -s 1 -d 2 -p tcp -e 1040 -c 0 -i 7 -a 0 -x {0.0 4.0 -1 ------- null}
r -t 7.55896 -s 0 -d 1 -p tcp -e 1040 -c 0 -i 8 -a 0 -x {0.0 4.0 5 ------- null}
+ -t 7.55896 -s 1 -d 2 -p tcp -e 1040 -c 0 -i 8 -a 0 -x {0.0 4.0 5 ------- null}
r -t 7.56173333333333 -s 0 -d 1 -p tcp -e 1040 -c 0 -i 9 -a 0 -x {0.0 4.0 6 ------- null}
+ -t 7.56173333333333 -s 1 -d 2 -p tcp -e 1040 -c 0 -i 9 -a 0 -x {0.0 4.0 6 ------- null}
r -t 8.05896 -s 1 -d 2 -p tcp -e 1040 -c 0 -i 6 -a 0 -x {0.0 4.0 3 ------- null}
+ -t 8.05896 -s 2 -d 3 -p tcp -e 1040 -c 0 -i 6 -a 0 -x {0.0 4.0 3 ------- null}
- -t 8.05896 -s 2 -d 3 -p tcp -e 1040 -c 0 -i 6 -a 0 -x {0.0 4.0 3 ------- null}
h -t 8.05896 -s 2 -d 3 -p tcp -e 1040 -c 0 -i 6 -a 0 -x {0.0 4.0 -1 ------- null}
- -t 8.42562666666667 -s 1 -d 2 -p tcp -e 1040 -c 0 -i 8 -a 0 -x {0.0 4.0 5 ------- null}
h -t 8.42562666666667 -s 1 -d 2 -p tcp -e 1040 -c 0 -i 8 -a 0 -x {0.0 4.0 -1 ------- null}
r -t 8.92562666666667 -s 1 -d 2 -p tcp -e 1040 -c 0 -i 7 -a 0 -x {0.0 4.0 4 ------- null}
+ -t 8.92562666666667 -s 2 -d 3 -p tcp -e 1040 -c 0 -i 7 -a 0 -x {0.0 4.0 4 ------- null}
- -t 8.92562666666667 -s 2 -d 3 -p tcp -e 1040 -c 0 -i 7 -a 0 -x {0.0 4.0 4 ------- null}
h -t 8.92562666666667 -s 2 -d 3 -p tcp -e 1040 -c 0 -i 7 -a 0 -x {0.0 4.0 -1 ------- null}
- -t 9.29229333333334 -s 1 -d 2 -p tcp -e 1040 -c 0 -i 9 -a 0 -x {0.0 4.0 6 ------- null}
h -t 9.29229333333334 -s 1 -d 2 -p tcp -e 1040 -c 0 -i 9 -a 0 -x {0.0 4.0 -1 ------- null}
r -t 9.42562666666667 -s 2 -d 3 -p tcp -e 1040 -c 0 -i 6 -a 0 -x {0.0 4.0 3 ------- null}
+ -t 9.42562666666667 -s 3 -d 4 -p tcp -e 1040 -c 0 -i 6 -a 0 -x {0.0 4.0 3 ------- null}
- -t 9.42562666666667 -s 3 -d 4 -p tcp -e 1040 -c 0 -i 6 -a 0 -x {0.0 4.0 3 ------- null}
h -t 9.42562666666667 -s 3 -d 4 -p tcp -e 1040 -c 0 -i 6 -a 0 -x {0.0 4.0 -1 ------- null}
r -t 9.4784 -s 3 -d 4 -p tcp -e 1040 -c 0 -i 6 -a 0 -x {0.0 4.0 3 ------- null}
+ -t 9.4784 -s 4 -d 3 -p ack -e 40 -c 0 -i 10 -a 0 -x {4.0 0.0 3 ------- null}
- -t 9.4784 -s 4 -d 3 -p ack -e 40 -c 0 -i 10 -a 0 -x {4.0 0.0 3 ------- null}
h -t 9.4784 -s 4 -d 3 -p ack -e 40 -c 0 -i 10 -a 0 -x {4.0 0.0 -1 ------- null}
r -t 9.52850666666667 -s 4 -d 3 -p ack -e 40 -c 0 -i 10 -a 0 -x {4.0 0.0 3 ------- null}
+ -t 9.52850666666667 -s 3 -d 2 -p ack -e 40 -c 0 -i 10 -a 0 -x {4.0 0.0 3 ------- null}
- -t 9.52850666666667 -s 3 -d 2 -p ack -e 40 -c 0 -i 10 -a 0 -x {4.0 0.0 3 ------- null}
h -t 9.52850666666667 -s 3 -d 2 -p ack -e 40 -c 0 -i 10 -a 0 -x {4.0 0.0 -1 ------- null}
r -t 9.79229333333334 -s 1 -d 2 -p tcp -e 1040 -c 0 -i 8 -a 0 -x {0.0 4.0 5 ------- null}
+ -t 9.79229333333334 -s 2 -d 3 -p tcp -e 1040 -c 0 -i 8 -a 0 -x {0.0 4.0 5 ------- null}
- -t 9.79229333333334 -s 2 -d 3 -p tcp -e 1040 -c 0 -i 8 -a 0 -x {0.0 4.0 5 ------- null}
h -t 9.79229333333334 -s 2 -d 3 -p tcp -e 1040 -c 0 -i 8 -a 0 -x {0.0 4.0 -1 ------- null}
r -t 10.06184 -s 3 -d 2 -p ack -e 40 -c 0 -i 10 -a 0 -x {4.0 0.0 3 ------- null}
+ -t 10.06184 -s 2 -d 1 -p ack -e 40 -c 0 -i 10 -a 0 -x {4.0 0.0 3 ------- null}
- -t 10.06184 -s 2 -d 1 -p ack -e 40 -c 0 -i 10 -a 0 -x {4.0 0.0 3 ------- null}
h -t 10.06184 -s 2 -d 1 -p ack -e 40 -c 0 -i 10 -a 0 -x {4.0 0.0 -1 ------- null}
r -t 10.2922933333333 -s 2 -d 3 -p tcp -e 1040 -c 0 -i 7 -a 0 -x {0.0 4.0 4 ------- null}
+ -t 10.2922933333333 -s 3 -d 4 -p tcp -e 1040 -c 0 -i 7 -a 0 -x {0.0 4.0 4 ------- null}
- -t 10.2922933333333 -s 3 -d 4 -p tcp -e 1040 -c 0 -i 7 -a 0 -x {0.0 4.0 4 ------- null}
h -t 10.2922933333333 -s 3 -d 4 -p tcp -e 1040 -c 0 -i 7 -a 0 -x {0.0 4.0 -1 ------- null}
r -t 10.3450666666667 -s 3 -d 4 -p tcp -e 1040 -c 0 -i 7 -a 0 -x {0.0 4.0 4 ------- null}
+ -t 10.3450666666667 -s 4 -d 3 -p ack -e 40 -c 0 -i 11 -a 0 -x {4.0 0.0 4 ------- null}
- -t 10.3450666666667 -s 4 -d 3 -p ack -e 40 -c 0 -i 11 -a 0 -x {4.0 0.0 4 ------- null}
h -t 10.3450666666667 -s 4 -d 3 -p ack -e 40 -c 0 -i 11 -a 0 -x {4.0 0.0 -1 ------- null}
r -t 10.3951733333333 -s 4 -d 3 -p ack -e 40 -c 0 -i 11 -a 0 -x {4.0 0.0 4 ------- null}
+ -t 10.3951733333333 -s 3 -d 2 -p ack -e 40 -c 0 -i 11 -a 0 -x {4.0 0.0 4 ------- null}
- -t 10.3951733333333 -s 3 -d 2 -p ack -e 40 -c 0 -i 11 -a 0 -x {4.0 0.0 4 ------- null}
h -t 10.3951733333333 -s 3 -d 2 -p ack -e 40 -c 0 -i 11 -a 0 -x {4.0 0.0 -1 ------- null}
r -t 10.5951733333333 -s 2 -d 1 -p ack -e 40 -c 0 -i 10 -a 0 -x {4.0 0.0 3 ------- null}
+ -t 10.5951733333333 -s 1 -d 0 -p ack -e 40 -c 0 -i 10 -a 0 -x {4.0 0.0 3 ------- null}
- -t 10.5951733333333 -s 1 -d 0 -p ack -e 40 -c 0 -i 10 -a 0 -x {4.0 0.0 3 ------- null}
h -t 10.5951733333333 -s 1 -d 0 -p ack -e 40 -c 0 -i 10 -a 0 -x {4.0 0.0 -1 ------- null}
r -t 10.60528 -s 1 -d 0 -p ack -e 40 -c 0 -i 10 -a 0 -x {4.0 0.0 3 ------- null}
+ -t 10.60528 -s 0 -d 1 -p tcp -e 1040 -c 0 -i 12 -a 0 -x {0.0 4.0 7 ------- null}
- -t 10.60528 -s 0 -d 1 -p tcp -e 1040 -c 0 -i 12 -a 0 -x {0.0 4.0 7 ------- null}
h -t 10.60528 -s 0 -d 1 -p tcp -e 1040 -c 0 -i 12 -a 0 -x {0.0 4.0 -1 ------- null}
+ -t 10.60528 -s 0 -d 1 -p tcp -e 1040 -c 0 -i 13 -a 0 -x {0.0 4.0 8 ------- null}
- -t 10.6080533333333 -s 0 -d 1 -p tcp -e 1040 -c 0 -i 13 -a 0 -x {0.0 4.0 8 ------- null}
h -t 10.6080533333333 -s 0 -d 1 -p tcp -e 1040 -c 0 -i 13 -a 0 -x {0.0 4.0 -1 ------- null}
r -t 10.6180533333333 -s 0 -d 1 -p tcp -e 1040 -c 0 -i 12 -a 0 -x {0.0 4.0 7 ------- null}
+ -t 10.6180533333333 -s 1 -d 2 -p tcp -e 1040 -c 0 -i 12 -a 0 -x {0.0 4.0 7 ------- null}
- -t 10.6180533333333 -s 1 -d 2 -p tcp -e 1040 -c 0 -i 12 -a 0 -x {0.0 4.0 7 ------- null}
h -t 10.6180533333333 -s 1 -d 2 -p tcp -e 1040 -c 0 -i 12 -a 0 -x {0.0 4.0 -1 ------- null}
r -t 10.6208266666667 -s 0 -d 1 -p tcp -e 1040 -c 0 -i 13 -a 0 -x {0.0 4.0 8 ------- null}
+ -t 10.6208266666667 -s 1 -d 2 -p tcp -e 1040 -c 0 -i 13 -a 0 -x {0.0 4.0 8 ------- null}
r -t 10.65896 -s 1 -d 2 -p tcp -e 1040 -c 0 -i 9 -a 0 -x {0.0 4.0 6 ------- null}
+ -t 10.65896 -s 2 -d 3 -p tcp -e 1040 -c 0 -i 9 -a 0 -x {0.0 4.0 6 ------- null}
- -t 10.65896 -s 2 -d 3 -p tcp -e 1040 -c 0 -i 9 -a 0 -x {0.0 4.0 6 ------- null}
h -t 10.65896 -s 2 -d 3 -p tcp -e 1040 -c 0 -i 9 -a 0 -x {0.0 4.0 -1 ------- null}
r -t 10.9285066666667 -s 3 -d 2 -p ack -e 40 -c 0 -i 11 -a 0 -x {4.0 0.0 4 ------- null}
+ -t 10.9285066666667 -s 2 -d 1 -p ack -e 40 -c 0 -i 11 -a 0 -x {4.0 0.0 4 ------- null}
- -t 10.9285066666667 -s 2 -d 1 -p ack -e 40 -c 0 -i 11 -a 0 -x {4.0 0.0 4 ------- null}
h -t 10.9285066666667 -s 2 -d 1 -p ack -e 40 -c 0 -i 11 -a 0 -x {4.0 0.0 -1 ------- null}
r -t 11.15896 -s 2 -d 3 -p tcp -e 1040 -c 0 -i 8 -a 0 -x {0.0 4.0 5 ------- null}
+ -t 11.15896 -s 3 -d 4 -p tcp -e 1040 -c 0 -i 8 -a 0 -x {0.0 4.0 5 ------- null}
- -t 11.15896 -s 3 -d 4 -p tcp -e 1040 -c 0 -i 8 -a 0 -x {0.0 4.0 5 ------- null}
h -t 11.15896 -s 3 -d 4 -p tcp -e 1040 -c 0 -i 8 -a 0 -x {0.0 4.0 -1 ------- null}
r -t 11.2117333333333 -s 3 -d 4 -p tcp -e 1040 -c 0 -i 8 -a 0 -x {0.0 4.0 5 ------- null}
+ -t 11.2117333333333 -s 4 -d 3 -p ack -e 40 -c 0 -i 14 -a 0 -x {4.0 0.0 5 ------- null}
- -t 11.2117333333333 -s 4 -d 3 -p ack -e 40 -c 0 -i 14 -a 0 -x {4.0 0.0 5 ------- null}
h -t 11.2117333333333 -s 4 -d 3 -p ack -e 40 -c 0 -i 14 -a 0 -x {4.0 0.0 -1 ------- null}
r -t 11.26184 -s 4 -d 3 -p ack -e 40 -c 0 -i 14 -a 0 -x {4.0 0.0 5 ------- null}
+ -t 11.26184 -s 3 -d 2 -p ack -e 40 -c 0 -i 14 -a 0 -x {4.0 0.0 5 ------- null}
- -t 11.26184 -s 3 -d 2 -p ack -e 40 -c 0 -i 14 -a 0 -x {4.0 0.0 5 ------- null}
h -t 11.26184 -s 3 -d 2 -p ack -e 40 -c 0 -i 14 -a 0 -x {4.0 0.0 -1 ------- null}
r -t 11.46184 -s 2 -d 1 -p ack -e 40 -c 0 -i 11 -a 0 -x {4.0 0.0 4 ------- null}
+ -t 11.46184 -s 1 -d 0 -p ack -e 40 -c 0 -i 11 -a 0 -x {4.0 0.0 4 ------- null}
- -t 11.46184 -s 1 -d 0 -p ack -e 40 -c 0 -i 11 -a 0 -x {4.0 0.0 4 ------- null}
h -t 11.46184 -s 1 -d 0 -p ack -e 40 -c 0 -i 11 -a 0 -x {4.0 0.0 -1 ------- null}
r -t 11.4719466666667 -s 1 -d 0 -p ack -e 40 -c 0 -i 11 -a 0 -x {4.0 0.0 4 ------- null}
+ -t 11.4719466666667 -s 0 -d 1 -p tcp -e 1040 -c 0 -i 15 -a 0 -x {0.0 4.0 9 ------- null}
- -t 11.4719466666667 -s 0 -d 1 -p tcp -e 1040 -c 0 -i 15 -a 0 -x {0.0 4.0 9 ------- null}
h -t 11.4719466666667 -s 0 -d 1 -p tcp -e 1040 -c 0 -i 15 -a 0 -x {0.0 4.0 -1 ------- null}
+ -t 11.4719466666667 -s 0 -d 1 -p tcp -e 1040 -c 0 -i 16 -a 0 -x {0.0 4.0 10 ------- null}
- -t 11.47472 -s 0 -d 1 -p tcp -e 1040 -c 0 -i 16 -a 0 -x {0.0 4.0 10 ------- null}
h -t 11.47472 -s 0 -d 1 -p tcp -e 1040 -c 0 -i 16 -a 0 -x {0.0 4.0 -1 ------- null}
- -t 11.48472 -s 1 -d 2 -p tcp -e 1040 -c 0 -i 13 -a 0 -x {0.0 4.0 8 ------- null}
h -t 11.48472 -s 1 -d 2 -p tcp -e 1040 -c 0 -i 13 -a 0 -x {0.0 4.0 -1 ------- null}
r -t 11.48472 -s 0 -d 1 -p tcp -e 1040 -c 0 -i 15 -a 0 -x {0.0 4.0 9 ------- null}
+ -t 11.48472 -s 1 -d 2 -p tcp -e 1040 -c 0 -i 15 -a 0 -x {0.0 4.0 9 ------- null}
r -t 11.4874933333333 -s 0 -d 1 -p tcp -e 1040 -c 0 -i 16 -a 0 -x {0.0 4.0 10 ------- null}
+ -t 11.4874933333333 -s 1 -d 2 -p tcp -e 1040 -c 0 -i 16 -a 0 -x {0.0 4.0 10 ------- null}
r -t 11.7951733333333 -s 3 -d 2 -p ack -e 40 -c 0 -i 14 -a 0 -x {4.0 0.0 5 ------- null}
+ -t 11.7951733333333 -s 2 -d 1 -p ack -e 40 -c 0 -i 14 -a 0 -x {4.0 0.0 5 ------- null}
- -t 11.7951733333333 -s 2 -d 1 -p ack -e 40 -c 0 -i 14 -a 0 -x {4.0 0.0 5 ------- null}
h -t 11.7951733333333 -s 2 -d 1 -p ack -e 40 -c 0 -i 14 -a 0 -x {4.0 0.0 -1 ------- null}
r -t 11.98472 -s 1 -d 2 -p tcp -e 1040 -c 0 -i 12 -a 0 -x {0.0 4.0 7 ------- null}
+ -t 11.98472 -s 2 -d 3 -p tcp -e 1040 -c 0 -i 12 -a 0 -x {0.0 4.0 7 ------- null}
- -t 11.98472 -s 2 -d 3 -p tcp -e 1040 -c 0 -i 12 -a 0 -x {0.0 4.0 7 ------- null}
h -t 11.98472 -s 2 -d 3 -p tcp -e 1040 -c 0 -i 12 -a 0 -x {0.0 4.0 -1 ------- null}
r -t 12.0256266666667 -s 2 -d 3 -p tcp -e 1040 -c 0 -i 9 -a 0 -x {0.0 4.0 6 ------- null}
+ -t 12.0256266666667 -s 3 -d 4 -p tcp -e 1040 -c 0 -i 9 -a 0 -x {0.0 4.0 6 ------- null}
- -t 12.0256266666667 -s 3 -d 4 -p tcp -e 1040 -c 0 -i 9 -a 0 -x {0.0 4.0 6 ------- null}
h -t 12.0256266666667 -s 3 -d 4 -p tcp -e 1040 -c 0 -i 9 -a 0 -x {0.0 4.0 -1 ------- null}
r -t 12.0784 -s 3 -d 4 -p tcp -e 1040 -c 0 -i 9 -a 0 -x {0.0 4.0 6 ------- null}
+ -t 12.0784 -s 4 -d 3 -p ack -e 40 -c 0 -i 17 -a 0 -x {4.0 0.0 6 ------- null}
- -t 12.0784 -s 4 -d 3 -p ack -e 40 -c 0 -i 17 -a 0 -x {4.0 0.0 6 ------- null}
h -t 12.0784 -s 4 -d 3 -p ack -e 40 -c 0 -i 17 -a 0 -x {4.0 0.0 -1 ------- null}
r -t 12.1285066666667 -s 4 -d 3 -p ack -e 40 -c 0 -i 17 -a 0 -x {4.0 0.0 6 ------- null}
+ -t 12.1285066666667 -s 3 -d 2 -p ack -e 40 -c 0 -i 17 -a 0 -x {4.0 0.0 6 ------- null}
- -t 12.1285066666667 -s 3 -d 2 -p ack -e 40 -c 0 -i 17 -a 0 -x {4.0 0.0 6 ------- null}
h -t 12.1285066666667 -s 3 -d 2 -p ack -e 40 -c 0 -i 17 -a 0 -x {4.0 0.0 -1 ------- null}
r -t 12.3285066666667 -s 2 -d 1 -p ack -e 40 -c 0 -i 14 -a 0 -x {4.0 0.0 5 ------- null}
+ -t 12.3285066666667 -s 1 -d 0 -p ack -e 40 -c 0 -i 14 -a 0 -x {4.0 0.0 5 ------- null}
- -t 12.3285066666667 -s 1 -d 0 -p ack -e 40 -c 0 -i 14 -a 0 -x {4.0 0.0 5 ------- null}
h -t 12.3285066666667 -s 1 -d 0 -p ack -e 40 -c 0 -i 14 -a 0 -x {4.0 0.0 -1 ------- null}
r -t 12.3386133333333 -s 1 -d 0 -p ack -e 40 -c 0 -i 14 -a 0 -x {4.0 0.0 5 ------- null}
+ -t 12.3386133333333 -s 0 -d 1 -p tcp -e 1040 -c 0 -i 18 -a 0 -x {0.0 4.0 11 ------- null}
- -t 12.3386133333333 -s 0 -d 1 -p tcp -e 1040 -c 0 -i 18 -a 0 -x {0.0 4.0 11 ------- null}
h -t 12.3386133333333 -s 0 -d 1 -p tcp -e 1040 -c 0 -i 18 -a 0 -x {0.0 4.0 -1 ------- null}
+ -t 12.3386133333333 -s 0 -d 1 -p tcp -e 1040 -c 0 -i 19 -a 0 -x {0.0 4.0 12 ------- null}
- -t 12.3413866666667 -s 0 -d 1 -p tcp -e 1040 -c 0 -i 19 -a 0 -x {0.0 4.0 12 ------- null}
h -t 12.3413866666667 -s 0 -d 1 -p tcp -e 1040 -c 0 -i 19 -a 0 -x {0.0 4.0 -1 ------- null}
- -t 12.3513866666667 -s 1 -d 2 -p tcp -e 1040 -c 0 -i 15 -a 0 -x {0.0 4.0 9 ------- null}
h -t 12.3513866666667 -s 1 -d 2 -p tcp -e 1040 -c 0 -i 15 -a 0 -x {0.0 4.0 -1 ------- null}
r -t 12.3513866666667 -s 0 -d 1 -p tcp -e 1040 -c 0 -i 18 -a 0 -x {0.0 4.0 11 ------- null}
+ -t 12.3513866666667 -s 1 -d 2 -p tcp -e 1040 -c 0 -i 18 -a 0 -x {0.0 4.0 11 ------- null}
r -t 12.35416 -s 0 -d 1 -p tcp -e 1040 -c 0 -i 19 -a 0 -x {0.0 4.0 12 ------- null}
+ -t 12.35416 -s 1 -d 2 -p tcp -e 1040 -c 0 -i 19 -a 0 -x {0.0 4.0 12 ------- null}
r -t 12.66184 -s 3 -d 2 -p ack -e 40 -c 0 -i 17 -a 0 -x {4.0 0.0 6 ------- null}
+ -t 12.66184 -s 2 -d 1 -p ack -e 40 -c 0 -i 17 -a 0 -x {4.0 0.0 6 ------- null}
- -t 12.66184 -s 2 -d 1 -p ack -e 40 -c 0 -i 17 -a 0 -x {4.0 0.0 6 ------- null}
h -t 12.66184 -s 2 -d 1 -p ack -e 40 -c 0 -i 17 -a 0 -x {4.0 0.0 -1 ------- null}
r -t 12.8513866666667 -s 1 -d 2 -p tcp -e 1040 -c 0 -i 13 -a 0 -x {0.0 4.0 8 ------- null}
+ -t 12.8513866666667 -s 2 -d 3 -p tcp -e 1040 -c 0 -i 13 -a 0 -x {0.0 4.0 8 ------- null}
- -t 12.8513866666667 -s 2 -d 3 -p tcp -e 1040 -c 0 -i 13 -a 0 -x {0.0 4.0 8 ------- null}
h -t 12.8513866666667 -s 2 -d 3 -p tcp -e 1040 -c 0 -i 13 -a 0 -x {0.0 4.0 -1 ------- null}
r -t 13.1951733333333 -s 2 -d 1 -p ack -e 40 -c 0 -i 17 -a 0 -x {4.0 0.0 6 ------- null}
+ -t 13.1951733333333 -s 1 -d 0 -p ack -e 40 -c 0 -i 17 -a 0 -x {4.0 0.0 6 ------- null}
- -t 13.1951733333333 -s 1 -d 0 -p ack -e 40 -c 0 -i 17 -a 0 -x {4.0 0.0 6 ------- null}
h -t 13.1951733333333 -s 1 -d 0 -p ack -e 40 -c 0 -i 17 -a 0 -x {4.0 0.0 -1 ------- null}
r -t 13.20528 -s 1 -d 0 -p ack -e 40 -c 0 -i 17 -a 0 -x {4.0 0.0 6 ------- null}
+ -t 13.20528 -s 0 -d 1 -p tcp -e 1040 -c 0 -i 20 -a 0 -x {0.0 4.0 13 ------- null}
- -t 13.20528 -s 0 -d 1 -p tcp -e 1040 -c 0 -i 20 -a 0 -x {0.0 4.0 13 ------- null}
h -t 13.20528 -s 0 -d 1 -p tcp -e 1040 -c 0 -i 20 -a 0 -x {0.0 4.0 -1 ------- null}
+ -t 13.20528 -s 0 -d 1 -p tcp -e 1040 -c 0 -i 21 -a 0 -x {0.0 4.0 14 ------- null}
- -t 13.2080533333333 -s 0 -d 1 -p tcp -e 1040 -c 0 -i 21 -a 0 -x {0.0 4.0 14 ------- null}
h -t 13.2080533333333 -s 0 -d 1 -p tcp -e 1040 -c 0 -i 21 -a 0 -x {0.0 4.0 -1 ------- null}
- -t 13.2180533333333 -s 1 -d 2 -p tcp -e 1040 -c 0 -i 16 -a 0 -x {0.0 4.0 10 ------- null}
h -t 13.2180533333333 -s 1 -d 2 -p tcp -e 1040 -c 0 -i 16 -a 0 -x {0.0 4.0 -1 ------- null}
r -t 13.2180533333333 -s 0 -d 1 -p tcp -e 1040 -c 0 -i 20 -a 0 -x {0.0 4.0 13 ------- null}
+ -t 13.2180533333333 -s 1 -d 2 -p tcp -e 1040 -c 0 -i 20 -a 0 -x {0.0 4.0 13 ------- null}
r -t 13.2208266666667 -s 0 -d 1 -p tcp -e 1040 -c 0 -i 21 -a 0 -x {0.0 4.0 14 ------- null}
+ -t 13.2208266666667 -s 1 -d 2 -p tcp -e 1040 -c 0 -i 21 -a 0 -x {0.0 4.0 14 ------- null}
r -t 13.3513866666667 -s 2 -d 3 -p tcp -e 1040 -c 0 -i 12 -a 0 -x {0.0 4.0 7 ------- null}
+ -t 13.3513866666667 -s 3 -d 4 -p tcp -e 1040 -c 0 -i 12 -a 0 -x {0.0 4.0 7 ------- null}
- -t 13.3513866666667 -s 3 -d 4 -p tcp -e 1040 -c 0 -i 12 -a 0 -x {0.0 4.0 7 ------- null}
h -t 13.3513866666667 -s 3 -d 4 -p tcp -e 1040 -c 0 -i 12 -a 0 -x {0.0 4.0 -1 ------- null}
r -t 13.40416 -s 3 -d 4 -p tcp -e 1040 -c 0 -i 12 -a 0 -x {0.0 4.0 7 ------- null}
+ -t 13.40416 -s 4 -d 3 -p ack -e 40 -c 0 -i 22 -a 0 -x {4.0 0.0 7 ------- null}
- -t 13.40416 -s 4 -d 3 -p ack -e 40 -c 0 -i 22 -a 0 -x {4.0 0.0 7 ------- null}
h -t 13.40416 -s 4 -d 3 -p ack -e 40 -c 0 -i 22 -a 0 -x {4.0 0.0 -1 ------- null}
r -t 13.4542666666667 -s 4 -d 3 -p ack -e 40 -c 0 -i 22 -a 0 -x {4.0 0.0 7 ------- null}
+ -t 13.4542666666667 -s 3 -d 2 -p ack -e 40 -c 0 -i 22 -a 0 -x {4.0 0.0 7 ------- null}
- -t 13.4542666666667 -s 3 -d 2 -p ack -e 40 -c 0 -i 22 -a 0 -x {4.0 0.0 7 ------- null}
h -t 13.4542666666667 -s 3 -d 2 -p ack -e 40 -c 0 -i 22 -a 0 -x {4.0 0.0 -1 ------- null}
r -t 13.7180533333333 -s 1 -d 2 -p tcp -e 1040 -c 0 -i 15 -a 0 -x {0.0 4.0 9 ------- null}
+ -t 13.7180533333333 -s 2 -d 3 -p tcp -e 1040 -c 0 -i 15 -a 0 -x {0.0 4.0 9 ------- null}
- -t 13.7180533333333 -s 2 -d 3 -p tcp -e 1040 -c 0 -i 15 -a 0 -x {0.0 4.0 9 ------- null}
h -t 13.7180533333333 -s 2 -d 3 -p tcp -e 1040 -c 0 -i 15 -a 0 -x {0.0 4.0 -1 ------- null}
r -t 13.9876 -s 3 -d 2 -p ack -e 40 -c 0 -i 22 -a 0 -x {4.0 0.0 7 ------- null}
+ -t 13.9876 -s 2 -d 1 -p ack -e 40 -c 0 -i 22 -a 0 -x {4.0 0.0 7 ------- null}
- -t 13.9876 -s 2 -d 1 -p ack -e 40 -c 0 -i 22 -a 0 -x {4.0 0.0 7 ------- null}
h -t 13.9876 -s 2 -d 1 -p ack -e 40 -c 0 -i 22 -a 0 -x {4.0 0.0 -1 ------- null}
- -t 14.08472 -s 1 -d 2 -p tcp -e 1040 -c 0 -i 18 -a 0 -x {0.0 4.0 11 ------- null}
h -t 14.08472 -s 1 -d 2 -p tcp -e 1040 -c 0 -i 18 -a 0 -x {0.0 4.0 -1 ------- null}
r -t 14.2180533333333 -s 2 -d 3 -p tcp -e 1040 -c 0 -i 13 -a 0 -x {0.0 4.0 8 ------- null}
+ -t 14.2180533333333 -s 3 -d 4 -p tcp -e 1040 -c 0 -i 13 -a 0 -x {0.0 4.0 8 ------- null}
- -t 14.2180533333333 -s 3 -d 4 -p tcp -e 1040 -c 0 -i 13 -a 0 -x {0.0 4.0 8 ------- null}
h -t 14.2180533333333 -s 3 -d 4 -p tcp -e 1040 -c 0 -i 13 -a 0 -x {0.0 4.0 -1 ------- null}
r -t 14.2708266666667 -s 3 -d 4 -p tcp -e 1040 -c 0 -i 13 -a 0 -x {0.0 4.0 8 ------- null}
+ -t 14.2708266666667 -s 4 -d 3 -p ack -e 40 -c 0 -i 23 -a 0 -x {4.0 0.0 8 ------- null}
- -t 14.2708266666667 -s 4 -d 3 -p ack -e 40 -c 0 -i 23 -a 0 -x {4.0 0.0 8 ------- null}
h -t 14.2708266666667 -s 4 -d 3 -p ack -e 40 -c 0 -i 23 -a 0 -x {4.0 0.0 -1 ------- null}
r -t 14.3209333333333 -s 4 -d 3 -p ack -e 40 -c 0 -i 23 -a 0 -x {4.0 0.0 8 ------- null}
+ -t 14.3209333333333 -s 3 -d 2 -p ack -e 40 -c 0 -i 23 -a 0 -x {4.0 0.0 8 ------- null}
- -t 14.3209333333333 -s 3 -d 2 -p ack -e 40 -c 0 -i 23 -a 0 -x {4.0 0.0 8 ------- null}
h -t 14.3209333333333 -s 3 -d 2 -p ack -e 40 -c 0 -i 23 -a 0 -x {4.0 0.0 -1 ------- null}
r -t 14.5209333333333 -s 2 -d 1 -p ack -e 40 -c 0 -i 22 -a 0 -x {4.0 0.0 7 ------- null}
+ -t 14.5209333333333 -s 1 -d 0 -p ack -e 40 -c 0 -i 22 -a 0 -x {4.0 0.0 7 ------- null}
- -t 14.5209333333333 -s 1 -d 0 -p ack -e 40 -c 0 -i 22 -a 0 -x {4.0 0.0 7 ------- null}
h -t 14.5209333333333 -s 1 -d 0 -p ack -e 40 -c 0 -i 22 -a 0 -x {4.0 0.0 -1 ------- null}
r -t 14.53104 -s 1 -d 0 -p ack -e 40 -c 0 -i 22 -a 0 -x {4.0 0.0 7 ------- null}
+ -t 14.53104 -s 0 -d 1 -p tcp -e 1040 -c 0 -i 24 -a 0 -x {0.0 4.0 15 ------- null}
- -t 14.53104 -s 0 -d 1 -p tcp -e 1040 -c 0 -i 24 -a 0 -x {0.0 4.0 15 ------- null}
h -t 14.53104 -s 0 -d 1 -p tcp -e 1040 -c 0 -i 24 -a 0 -x {0.0 4.0 -1 ------- null}
+ -t 14.53104 -s 0 -d 1 -p tcp -e 1040 -c 0 -i 25 -a 0 -x {0.0 4.0 16 ------- null}
- -t 14.5338133333333 -s 0 -d 1 -p tcp -e 1040 -c 0 -i 25 -a 0 -x {0.0 4.0 16 ------- null}
h -t 14.5338133333333 -s 0 -d 1 -p tcp -e 1040 -c 0 -i 25 -a 0 -x {0.0 4.0 -1 ------- null}
r -t 14.5438133333333 -s 0 -d 1 -p tcp -e 1040 -c 0 -i 24 -a 0 -x {0.0 4.0 15 ------- null}
+ -t 14.5438133333333 -s 1 -d 2 -p tcp -e 1040 -c 0 -i 24 -a 0 -x {0.0 4.0 15 ------- null}
r -t 14.5465866666667 -s 0 -d 1 -p tcp -e 1040 -c 0 -i 25 -a 0 -x {0.0 4.0 16 ------- null}
+ -t 14.5465866666667 -s 1 -d 2 -p tcp -e 1040 -c 0 -i 25 -a 0 -x {0.0 4.0 16 ------- null}
r -t 14.58472 -s 1 -d 2 -p tcp -e 1040 -c 0 -i 16 -a 0 -x {0.0 4.0 10 ------- null}
+ -t 14.58472 -s 2 -d 3 -p tcp -e 1040 -c 0 -i 16 -a 0 -x {0.0 4.0 10 ------- null}
- -t 14.58472 -s 2 -d 3 -p tcp -e 1040 -c 0 -i 16 -a 0 -x {0.0 4.0 10 ------- null}
h -t 14.58472 -s 2 -d 3 -p tcp -e 1040 -c 0 -i 16 -a 0 -x {0.0 4.0 -1 ------- null}
r -t 14.8542666666667 -s 3 -d 2 -p ack -e 40 -c 0 -i 23 -a 0 -x {4.0 0.0 8 ------- null}
+ -t 14.8542666666667 -s 2 -d 1 -p ack -e 40 -c 0 -i 23 -a 0 -x {4.0 0.0 8 ------- null}
- -t 14.8542666666667 -s 2 -d 1 -p ack -e 40 -c 0 -i 23 -a 0 -x {4.0 0.0 8 ------- null}
h -t 14.8542666666667 -s 2 -d 1 -p ack -e 40 -c 0 -i 23 -a 0 -x {4.0 0.0 -1 ------- null}
- -t 14.9513866666667 -s 1 -d 2 -p tcp -e 1040 -c 0 -i 19 -a 0 -x {0.0 4.0 12 ------- null}
h -t 14.9513866666667 -s 1 -d 2 -p tcp -e 1040 -c 0 -i 19 -a 0 -x {0.0 4.0 -1 ------- null}